TITLE = "Overland flow example 1"
VARIABLES = "X","Y","Z","Zone","3DNode#","Head","Depth","LogDepth","MaxDepth","Vx","Vy","Vz","nx","ny","Specified Flux","Rain","Exchange flux"
DATASETAUXDATA Source="HydroGeoSphere, Aquanty Inc."
DATASETAUXDATA HGS_Version="2611"
DATASETAUXDATA Date_Created="2024-02-15T11:25:25-05:00"
DATASETAUXDATA Model_Prefix="olf1"
DATASETAUXDATA Mass_Base_Unit="kg"
DATASETAUXDATA Length_Base_Unit="m"
DATASETAUXDATA Time_Base_Unit="s"
DATASETAUXDATA Temperature_Base_Unit="deg C"
# X units: (m)
# Y units: (m)
# Z units: (m)
# Head units: (m)
# Depth units: (m)
# LogDepth units: (m)
# MaxDepth units: (m)
# Vx units: (m s^-1)
# Vy units: (m s^-1)
# Vz units: (m s^-1)
# nx units: (m^-1/3 s)
# ny units: (m^-1/3 s)
# Specified Flux units: (m s^-1)
# Rain units: (m s^-1)
# Exchange flux units: (m s^-1)
VARAUXDATA 1 Units="(m)"
VARAUXDATA 2 Units="(m)"
VARAUXDATA 3 Units="(m)"
VARAUXDATA 6 Units="(m)"
VARAUXDATA 7 Units="(m)"
VARAUXDATA 8 Units="(m)"
VARAUXDATA 9 Units="(m)"
VARAUXDATA 10 Units="(m s^-1)"
VARAUXDATA 11 Units="(m s^-1)"
VARAUXDATA 12 Units="(m s^-1)"
VARAUXDATA 13 Units="(m^-1/3 s)"
VARAUXDATA 14 Units="(m^-1/3 s)"
VARAUXDATA 15 Units="(m s^-1)"
VARAUXDATA 16 Units="(m s^-1)"
VARAUXDATA 17 Units="(m s^-1)"
ZONE T="olf", SOLUTIONTIME=242.313000000000, DATAPACKING=BLOCK, NODES=202, ELEMENTS=100, ZONETYPE=FEQUADRILATERAL, VARLOCATION=([4,10,11,12,13,14]=CELLCENTERED)
DT=(DOUBLE,DOUBLE,DOUBLE,SHORTINT,SHORTINT,DOUBLE,SINGLE,SINGLE,SINGLE,SINGLE,SINGLE,SINGLE,DOUBLE,DOUBLE,DOUBLE,DOUBLE,SINGLE)
# x
   0.0000000000000000        1.0000000000000000        2.0000000000000000        3.0000000000000000        4.0000000000000000     
   5.0000000000000000        6.0000000000000000        7.0000000000000000        8.0000000000000000        9.0000000000000000     
   10.000000000000000        11.000000000000000        12.000000000000000        13.000000000000000        14.000000000000000     
   15.000000000000000        16.000000000000000        17.000000000000000        18.000000000000000        19.000000000000000     
   20.000000000000000        21.000000000000000        22.000000000000000        23.000000000000000        24.000000000000000     
   25.000000000000000        26.000000000000000        27.000000000000000        28.000000000000000        29.000000000000000     
   30.000000000000000        31.000000000000000        32.000000000000000        33.000000000000000        34.000000000000000     
   35.000000000000000        36.000000000000000        37.000000000000000        38.000000000000000        39.000000000000000     
   40.000000000000000        41.000000000000000        42.000000000000000        43.000000000000000        44.000000000000000     
   45.000000000000000        46.000000000000000        47.000000000000000        48.000000000000000        49.000000000000000     
   50.000000000000000        51.000000000000000        52.000000000000000        53.000000000000000        54.000000000000000     
   55.000000000000000        56.000000000000000        57.000000000000000        58.000000000000000        59.000000000000000     
   60.000000000000000        61.000000000000000        62.000000000000000        63.000000000000000        64.000000000000000     
   65.000000000000000        66.000000000000000        67.000000000000000        68.000000000000000        69.000000000000000     
   70.000000000000000        71.000000000000000        72.000000000000000        73.000000000000000        74.000000000000000     
   75.000000000000000        76.000000000000000        77.000000000000000        78.000000000000000        79.000000000000000     
   80.000000000000000        81.000000000000000        82.000000000000000        83.000000000000000        84.000000000000000     
   85.000000000000000        86.000000000000000        87.000000000000000        88.000000000000000        89.000000000000000     
   90.000000000000000        91.000000000000000        92.000000000000000        93.000000000000000        94.000000000000000     
   95.000000000000000        96.000000000000000        97.000000000000000        98.000000000000000        99.000000000000000     
   100.00000000000000        0.0000000000000000        1.0000000000000000        2.0000000000000000        3.0000000000000000     
   4.0000000000000000        5.0000000000000000        6.0000000000000000        7.0000000000000000        8.0000000000000000     
   9.0000000000000000        10.000000000000000        11.000000000000000        12.000000000000000        13.000000000000000     
   14.000000000000000        15.000000000000000        16.000000000000000        17.000000000000000        18.000000000000000     
   19.000000000000000        20.000000000000000        21.000000000000000        22.000000000000000        23.000000000000000     
   24.000000000000000        25.000000000000000        26.000000000000000        27.000000000000000        28.000000000000000     
   29.000000000000000        30.000000000000000        31.000000000000000        32.000000000000000        33.000000000000000     
   34.000000000000000        35.000000000000000        36.000000000000000        37.000000000000000        38.000000000000000     
   39.000000000000000        40.000000000000000        41.000000000000000        42.000000000000000        43.000000000000000     
   44.000000000000000        45.000000000000000        46.000000000000000        47.000000000000000        48.000000000000000     
   49.000000000000000        50.000000000000000        51.000000000000000        52.000000000000000        53.000000000000000     
   54.000000000000000        55.000000000000000        56.000000000000000        57.000000000000000        58.000000000000000     
   59.000000000000000        60.000000000000000        61.000000000000000        62.000000000000000        63.000000000000000     
   64.000000000000000        65.000000000000000        66.000000000000000        67.000000000000000        68.000000000000000     
   69.000000000000000        70.000000000000000        71.000000000000000        72.000000000000000        73.000000000000000     
   74.000000000000000        75.000000000000000        76.000000000000000        77.000000000000000        78.000000000000000     
   79.000000000000000        80.000000000000000        81.000000000000000        82.000000000000000        83.000000000000000     
   84.000000000000000        85.000000000000000        86.000000000000000        87.000000000000000        88.000000000000000     
   89.000000000000000        90.000000000000000        91.000000000000000        92.000000000000000        93.000000000000000     
   94.000000000000000        95.000000000000000        96.000000000000000        97.000000000000000        98.000000000000000     
   99.000000000000000        100.00000000000000     
# y
   0.0000000000000000        0.0000000000000000        0.0000000000000000        0.0000000000000000        0.0000000000000000     
   0.0000000000000000        0.0000000000000000        0.0000000000000000        0.0000000000000000        0.0000000000000000     
   0.0000000000000000        0.0000000000000000        0.0000000000000000        0.0000000000000000        0.0000000000000000     
   0.0000000000000000        0.0000000000000000        0.0000000000000000        0.0000000000000000        0.0000000000000000     
   0.0000000000000000        0.0000000000000000        0.0000000000000000        0.0000000000000000        0.0000000000000000     
   0.0000000000000000        0.0000000000000000        0.0000000000000000        0.0000000000000000        0.0000000000000000     
   0.0000000000000000        0.0000000000000000        0.0000000000000000        0.0000000000000000        0.0000000000000000     
   0.0000000000000000        0.0000000000000000        0.0000000000000000        0.0000000000000000        0.0000000000000000     
   0.0000000000000000        0.0000000000000000        0.0000000000000000        0.0000000000000000        0.0000000000000000     
   0.0000000000000000        0.0000000000000000        0.0000000000000000        0.0000000000000000        0.0000000000000000     
   0.0000000000000000        0.0000000000000000        0.0000000000000000        0.0000000000000000        0.0000000000000000     
   0.0000000000000000        0.0000000000000000        0.0000000000000000        0.0000000000000000        0.0000000000000000     
   0.0000000000000000        0.0000000000000000        0.0000000000000000        0.0000000000000000        0.0000000000000000     
   0.0000000000000000        0.0000000000000000        0.0000000000000000        0.0000000000000000        0.0000000000000000     
   0.0000000000000000        0.0000000000000000        0.0000000000000000        0.0000000000000000        0.0000000000000000     
   0.0000000000000000        0.0000000000000000        0.0000000000000000        0.0000000000000000        0.0000000000000000     
   0.0000000000000000        0.0000000000000000        0.0000000000000000        0.0000000000000000        0.0000000000000000     
   0.0000000000000000        0.0000000000000000        0.0000000000000000        0.0000000000000000        0.0000000000000000     
   0.0000000000000000        0.0000000000000000        0.0000000000000000        0.0000000000000000        0.0000000000000000     
   0.0000000000000000        0.0000000000000000        0.0000000000000000        0.0000000000000000        0.0000000000000000     
   0.0000000000000000        1.0000000000000000        1.0000000000000000        1.0000000000000000        1.0000000000000000     
   1.0000000000000000        1.0000000000000000        1.0000000000000000        1.0000000000000000        1.0000000000000000     
   1.0000000000000000        1.0000000000000000        1.0000000000000000        1.0000000000000000        1.0000000000000000     
   1.0000000000000000        1.0000000000000000        1.0000000000000000        1.0000000000000000        1.0000000000000000     
   1.0000000000000000        1.0000000000000000        1.0000000000000000        1.0000000000000000        1.0000000000000000     
   1.0000000000000000        1.0000000000000000        1.0000000000000000        1.0000000000000000        1.0000000000000000     
   1.0000000000000000        1.0000000000000000        1.0000000000000000        1.0000000000000000        1.0000000000000000     
   1.0000000000000000        1.0000000000000000        1.0000000000000000        1.0000000000000000        1.0000000000000000     
   1.0000000000000000        1.0000000000000000        1.0000000000000000        1.0000000000000000        1.0000000000000000     
   1.0000000000000000        1.0000000000000000        1.0000000000000000        1.0000000000000000        1.0000000000000000     
   1.0000000000000000        1.0000000000000000        1.0000000000000000        1.0000000000000000        1.0000000000000000     
   1.0000000000000000        1.0000000000000000        1.0000000000000000        1.0000000000000000        1.0000000000000000     
   1.0000000000000000        1.0000000000000000        1.0000000000000000        1.0000000000000000        1.0000000000000000     
   1.0000000000000000        1.0000000000000000        1.0000000000000000        1.0000000000000000        1.0000000000000000     
   1.0000000000000000        1.0000000000000000        1.0000000000000000        1.0000000000000000        1.0000000000000000     
   1.0000000000000000        1.0000000000000000        1.0000000000000000        1.0000000000000000        1.0000000000000000     
   1.0000000000000000        1.0000000000000000        1.0000000000000000        1.0000000000000000        1.0000000000000000     
   1.0000000000000000        1.0000000000000000        1.0000000000000000        1.0000000000000000        1.0000000000000000     
   1.0000000000000000        1.0000000000000000        1.0000000000000000        1.0000000000000000        1.0000000000000000     
   1.0000000000000000        1.0000000000000000        1.0000000000000000        1.0000000000000000        1.0000000000000000     
   1.0000000000000000        1.0000000000000000     
# z
   2.0000000000000000        1.9900000000000000        1.9800000000000000        1.9700000000000000        1.9600000000000000     
   1.9500000000000000        1.9399999999999999        1.9299999999999999        1.9199999999999999        1.9099999999999999     
   1.8999999999999999        1.8899999999999999        1.8799999999999999        1.8700000000000001        1.8599999999999999     
   1.8500000000000001        1.8399999999999999        1.8300000000000001        1.8200000000000001        1.8100000000000001     
   1.8000000000000000        1.7900000000000000        1.7800000000000000        1.7700000000000000        1.7600000000000000     
   1.7500000000000000        1.7400000000000000        1.7300000000000000        1.7200000000000000        1.7100000000000000     
   1.7000000000000000        1.6899999999999999        1.6799999999999999        1.6699999999999999        1.6599999999999999     
   1.6499999999999999        1.6400000000000001        1.6299999999999999        1.6200000000000001        1.6099999999999999     
   1.6000000000000001        1.5899999999999999        1.5800000000000001        1.5700000000000001        1.5600000000000001     
   1.5500000000000000        1.5400000000000000        1.5300000000000000        1.5200000000000000        1.5100000000000000     
   1.5000000000000000        1.4900000000000000        1.4800000000000000        1.4700000000000000        1.4600000000000000     
   1.4500000000000000        1.4399999999999999        1.4299999999999999        1.4199999999999999        1.4100000000000001     
   1.3999999999999999        1.3900000000000001        1.3799999999999999        1.3700000000000001        1.3599999999999999     
   1.3500000000000001        1.3399999999999999        1.3300000000000001        1.3199999999999998        1.3100000000000001     
   1.2999999999999998        1.2900000000000000        1.2800000000000000        1.2700000000000000        1.2600000000000000     
   1.2500000000000000        1.2400000000000000        1.2300000000000000        1.2200000000000000        1.2100000000000000     
   1.2000000000000000        1.1899999999999999        1.1799999999999999        1.1699999999999999        1.1600000000000001     
   1.1499999999999999        1.1400000000000001        1.1299999999999999        1.1200000000000001        1.1099999999999999     
   1.1000000000000001        1.0899999999999999        1.0800000000000001        1.0699999999999998        1.0600000000000001     
   1.0499999999999998        1.0400000000000000        1.0300000000000000        1.0200000000000000        1.0100000000000000     
   1.0000000000000000        2.0000000000000000        1.9900000000000000        1.9800000000000000        1.9700000000000000     
   1.9600000000000000        1.9500000000000000        1.9399999999999999        1.9299999999999999        1.9199999999999999     
   1.9099999999999999        1.8999999999999999        1.8899999999999999        1.8799999999999999        1.8700000000000001     
   1.8599999999999999        1.8500000000000001        1.8399999999999999        1.8300000000000001        1.8200000000000001     
   1.8100000000000001        1.8000000000000000        1.7900000000000000        1.7800000000000000        1.7700000000000000     
   1.7600000000000000        1.7500000000000000        1.7400000000000000        1.7300000000000000        1.7200000000000000     
   1.7100000000000000        1.7000000000000000        1.6899999999999999        1.6799999999999999        1.6699999999999999     
   1.6599999999999999        1.6499999999999999        1.6400000000000001        1.6299999999999999        1.6200000000000001     
   1.6099999999999999        1.6000000000000001        1.5899999999999999        1.5800000000000001        1.5700000000000001     
   1.5600000000000001        1.5500000000000000        1.5400000000000000        1.5300000000000000        1.5200000000000000     
   1.5100000000000000        1.5000000000000000        1.4900000000000000        1.4800000000000000        1.4700000000000000     
   1.4600000000000000        1.4500000000000000        1.4399999999999999        1.4299999999999999        1.4199999999999999     
   1.4100000000000001        1.3999999999999999        1.3900000000000001        1.3799999999999999        1.3700000000000001     
   1.3599999999999999        1.3500000000000001        1.3399999999999999        1.3300000000000001        1.3199999999999998     
   1.3100000000000001        1.2999999999999998        1.2900000000000000        1.2800000000000000        1.2700000000000000     
   1.2600000000000000        1.2500000000000000        1.2400000000000000        1.2300000000000000        1.2200000000000000     
   1.2100000000000000        1.2000000000000000        1.1899999999999999        1.1799999999999999        1.1699999999999999     
   1.1600000000000001        1.1499999999999999        1.1400000000000001        1.1299999999999999        1.1200000000000001     
   1.1099999999999999        1.1000000000000001        1.0899999999999999        1.0800000000000001        1.0699999999999998     
   1.0600000000000001        1.0499999999999998        1.0400000000000000        1.0300000000000000        1.0200000000000000     
   1.0100000000000000        1.0000000000000000     
# zone (cell centred)
          1          1          1          1          1
          1          1          1          1          1
          1          1          1          1          1
          1          1          1          1          1
          1          1          1          1          1
          1          1          1          1          1
          1          1          1          1          1
          1          1          1          1          1
          1          1          1          1          1
          1          1          1          1          1
          1          1          1          1          1
          1          1          1          1          1
          1          1          1          1          1
          1          1          1          1          1
          1          1          1          1          1
          1          1          1          1          1
          1          1          1          1          1
          1          1          1          1          1
          1          1          1          1          1
          1          1          1          1          1
# 3D node #
        203        204        205        206        207
        208        209        210        211        212
        213        214        215        216        217
        218        219        220        221        222
        223        224        225        226        227
        228        229        230        231        232
        233        234        235        236        237
        238        239        240        241        242
        243        244        245        246        247
        248        249        250        251        252
        253        254        255        256        257
        258        259        260        261        262
        263        264        265        266        267
        268        269        270        271        272
        273        274        275        276        277
        278        279        280        281        282
        283        284        285        286        287
        288        289        290        291        292
        293        294        295        296        297
        298        299        300        301        302
        303        304        305        306        307
        308        309        310        311        312
        313        314        315        316        317
        318        319        320        321        322
        323        324        325        326        327
        328        329        330        331        332
        333        334        335        336        337
        338        339        340        341        342
        343        344        345        346        347
        348        349        350        351        352
        353        354        355        356        357
        358        359        360        361        362
        363        364        365        366        367
        368        369        370        371        372
        373        374        375        376        377
        378        379        380        381        382
        383        384        385        386        387
        388        389        390        391        392
        393        394        395        396        397
        398        399        400        401        402
        403        404
# head
   2.0592386865223942        2.0590905195427114        2.0582920186013718        2.0568299533464507        2.0548005241904490     
   2.0522972002466080        2.0493956360829149        2.0461551960463109        2.0426225873432511        2.0388350018195052     
   2.0348224746299266        2.0306095995031517        2.0262167746462727        2.0216611173589327        2.0169571413696232     
   2.0121172677788626        2.0071522164482971        2.0020713065681148        1.9968826938880233        1.9915935578665858     
   1.9862102518737856        1.9807384238024652        1.9751831158117970        1.9695488449463325        1.9638396706119097     
   1.9580592504094598        1.9522108878257001        1.9462975708673222        1.9403220062736255        1.9342866480697904     
   1.9281937211973825        1.9220452434363984        1.9158430423065458        1.9095887713988295        1.9032839226665630     
   1.8969298377427075        1.8905277183031928        1.8840786344098746        1.8775835305632074        1.8710432327285431     
   1.8644584518294571        1.8578297902138226        1.8511577417926501        1.8444426969417065        1.8376849427206479     
   1.8308846651464559        1.8240419481864054        1.8171567744040684        1.8102290240782715        1.8032584727478498     
   1.7962447901594900        1.7891875374392279        1.7820861627907745        1.7749399968558488        1.7677482503150832     
   1.7605100041667003        1.7532242069787749        1.7458896642437896        1.7385050310443111        1.7310688017184030     
   1.7235792985903959        1.7160346591585127        1.7084328215416662        1.7007715084236426        1.6930482068594486     
   1.6852601502479767        1.6774042902813224        1.6694772722213380        1.6614754034711936        1.6533946146346898     
   1.6452304224385925        1.6369778773696899        1.6286315114948025        1.6201852717840219        1.6116324465632541     
   1.6029655732857355        1.5941763381369360        1.5852554466898323        1.5761924781441270        1.5669757036615724     
   1.5575918706285237        1.5480259329377504        1.5382607268428554        1.5282765587570264        1.5180506932256463     
   1.5075566968783314        1.4967635989163277        1.4856347878960479        1.4741265513977897        1.4621861066194111     
   1.4497488818123576        1.4367346898565667        1.4230421975175795        1.4085406750990423        1.3930572546696653     
   1.3763563876711222        1.3581049379663277        1.3378089093796786        1.3146887420932181        1.2874046793376925     
   1.2533497228419415        2.0592386863908012        2.0590905193986822        2.0582920187562062        2.0568299532248520     
   2.0548005240993907        2.0522972001317217        2.0493956362123193        2.0461551959378084        2.0426225872374242     
   2.0388350019291419        2.0348224747414578        2.0306095993697313        2.0262167747626005        2.0216611174777284     
   2.0169571412304030        2.0121172679019184        2.0071522165476514        2.0020713066719100        1.9968826939911679     
   1.9915935579979906        1.9862102517420728        1.9807384236938277        1.9751831156978836        1.9695488448336196     
   1.9638396704689236        1.9580592505556933        1.9522108879455851        1.9462975709890629        1.9403220064281121     
   1.9342866479126246        1.9281937210719682        1.9220452432733035        1.9158430424688235        1.9095887715638187     
   1.9032839224981397        1.8969298375705721        1.8905277184793199        1.8840786345494025        1.8775835307487854     
   1.8710432325043589        1.8644584520537471        1.8578297900166907        1.8511577416392011        1.8444426967424830     
   1.8376849429181232        1.8308846653068045        1.8240419483491144        1.8171567746097113        1.8102290238706691     
   1.8032584725385903        1.7962447903696206        1.7891875376574158        1.7820861625273969        1.7749399971279707     
   1.7677482500468342        1.7605100044010367        1.7532242071648787        1.7458896644373929        1.7385050312396948     
   1.7310688019160017        1.7235792987905960        1.7160346593554237        1.7084328217935618        1.7007715081388306     
   1.6930482071596329        1.6852601500082089        1.6774042900408372        1.6694772725265681        1.6614754031723251     
   1.6533946149445995        1.6452304221865368        1.6369778771783274        1.6286315112383378        1.6201852720936207     
   1.6116324462534322        1.6029655736028208        1.5941763378793317        1.5852554464894857        1.5761924778729131     
   1.5669757039678709        1.5575918703225999        1.5480259332169062        1.5382607270440540        1.5282765590040124     
   1.5180506929058744        1.5075566971464223        1.4967635991845152        1.4856347875855578        1.4741265516417434     
   1.4621861068650688        1.4497488815110653        1.4367346901181959        1.4230421977646026        1.4085406747839555     
   1.3930572549757376        1.3763563873624085        1.3581049382287755        1.3378089095764194        1.3146887422943943     
   1.2874046795950118        1.2533497225350303     
# Depth
  0.59238687157630920E-001  0.69090522825717926E-001  0.78292019665241241E-001  0.86829952895641327E-001  0.94800524413585663E-001
  0.10229720175266266       0.10939563810825348       0.11615519970655441       0.12262258678674698       0.12883500754833221     
  0.13482247292995453       0.14060959219932556       0.14621677994728088       0.15166111290454865       0.15695713460445404     
  0.16211727261543274       0.16715221107006073       0.17207130789756775       0.17688269913196564       0.18159355223178864     
  0.18621024489402771       0.19073842465877533       0.19518311321735382       0.19954884052276611       0.20383967459201813     
  0.20805925130844116       0.21221089363098145       0.21629756689071655       0.22032201290130615       0.22428664565086365     
  0.22819371521472931       0.23204524815082550       0.23584304749965668       0.23958876729011536       0.24328392744064331     
  0.24692983925342560       0.25052770972251892       0.25407862663269043       0.25758352875709534       0.26104322075843811     
  0.26445844769477844       0.26782977581024170       0.27115774154663086       0.27444270253181458       0.27768495678901672     
  0.28088465332984924       0.28404194116592407       0.28715676069259644       0.29022902250289917       0.29325845837593079     
  0.29624480009078979       0.29918754100799561       0.30208617448806763       0.30493998527526855       0.30774825811386108     
  0.31051000952720642       0.31322419643402100       0.31588965654373169       0.31850501894950867       0.32106879353523254     
  0.32357931137084961       0.32603466510772705       0.32843282818794250       0.33077150583267212       0.33304819464683533     
  0.33526015281677246       0.33740428090095520       0.33947727084159851       0.34147539734840393       0.34339460730552673     
  0.34523043036460876       0.34697788953781128       0.34863150119781494       0.35018527507781982       0.35163244605064392     
  0.35296556353569031       0.35417634248733521       0.35525545477867126       0.35619246959686279       0.35697570443153381     
  0.35759186744689941       0.35802593827247620       0.35826072096824646       0.35827654600143433       0.35805070400238037     
  0.35755670070648193       0.35676360130310059       0.35563477873802185       0.35412654280662537       0.35218611359596252     
  0.34974887967109680       0.34673470258712769       0.34304219484329224       0.33854067325592041       0.33305725455284119     
  0.32635638117790222       0.31810495257377625       0.30780890583992004       0.29468873143196106       0.27740466594696045     
  0.25334972143173218       0.59238687157630920E-001  0.69090522825717926E-001  0.78292019665241241E-001  0.86829952895641327E-001
  0.94800524413585663E-001  0.10229720175266266       0.10939563810825348       0.11615519225597382       0.12262258678674698     
  0.12883500754833221       0.13482247292995453       0.14060959219932556       0.14621677994728088       0.15166111290454865     
  0.15695713460445404       0.16211727261543274       0.16715221107006073       0.17207130789756775       0.17688269913196564     
  0.18159355223178864       0.18621024489402771       0.19073842465877533       0.19518311321735382       0.19954884052276611     
  0.20383967459201813       0.20805925130844116       0.21221089363098145       0.21629756689071655       0.22032201290130615     
  0.22428664565086365       0.22819371521472931       0.23204524815082550       0.23584304749965668       0.23958876729011536     
  0.24328392744064331       0.24692983925342560       0.25052770972251892       0.25407862663269043       0.25758352875709534     
  0.26104322075843811       0.26445844769477844       0.26782977581024170       0.27115774154663086       0.27444270253181458     