TITLE     = "TMPLT"
VARIABLES = "Cell Elevation"
ZONE T="TMPLT"
 STRANDID=0, SOLUTIONTIME=0
 Nodes=1704, Elements=1610, ZONETYPE=FEQuadrilateral
 DATAPACKING=BLOCK
 DT=(SINGLE )
 4.053960800E+000 4.055138588E+000 4.055767059E+000 4.057353497E+000 4.059523106E+000
 4.068061352E+000 4.076932907E+000 4.082396030E+000 4.092199802E+000 4.137218475E+000
 4.181998730E+000 4.198688984E+000 4.282116413E+000 4.364619732E+000 4.390404701E+000
 4.499651432E+000 4.601729393E+000 4.603265762E+000 4.588310242E+000 4.522215843E+000
 4.446475983E+000 4.423177719E+000 4.412590981E+000 4.407992840E+000 4.035345554E+000
 4.035631657E+000 4.037839413E+000 4.039818764E+000 4.042435169E+000 4.054327965E+000
 4.066459179E+000 4.073526859E+000 4.084107399E+000 4.108952522E+000 4.126915932E+000
 4.151288986E+000 4.215343475E+000 4.254170895E+000 4.303335667E+000 4.403893948E+000
 4.469225883E+000 4.532234192E+000 4.579899788E+000 4.516804218E+000 4.438408852E+000
 4.418070793E+000 4.411688805E+000 4.409135818E+000 4.012267590E+000 4.012961388E+000
 4.015117645E+000 4.018305302E+000 4.021691799E+000 4.030238152E+000 4.038708687E+000
 4.044598103E+000 4.051425934E+000 4.057059765E+000 4.053781033E+000 4.047259808E+000
 4.049864292E+000 4.071020603E+000 4.089933872E+000 4.093192577E+000 4.142390728E+000
 4.264444351E+000 4.441058159E+000 4.523128033E+000 4.492165089E+000 4.444724083E+000
 4.403181076E+000 4.398293018E+000 4.003539085E+000 4.004399300E+000 4.005739689E+000
 4.007687092E+000 4.010152817E+000 4.012896538E+000 4.017127037E+000 4.022140980E+000
 4.023746967E+000 4.014294624E+000 3.997638941E+000 3.939067602E+000 3.867771149E+000
 3.860375643E+000 3.781757832E+000 3.689338207E+000 3.781529427E+000 3.913440943E+000
 4.144475937E+000 4.438567638E+000 4.543304443E+000 4.483111858E+000 4.412536144E+000
 4.406637669E+000 3.986981153E+000 3.987655401E+000 3.992911577E+000 3.998026609E+000
 3.999320745E+000 4.001074314E+000 4.002025127E+000 4.004436493E+000 4.010048866E+000
 3.985197544E+000 3.946052790E+000 3.877032042E+000 3.760864735E+000 3.677758694E+000
 3.532246590E+000 3.390238285E+000 3.431593180E+000 3.597954512E+000 3.887023211E+000
 4.188492775E+000 4.423262119E+000 4.529636383E+000 4.513821125E+000 4.511132240E+000
 3.963000536E+000 3.963868618E+000 3.972300768E+000 3.980712652E+000 3.982720137E+000
 3.986654282E+000 3.988996506E+000 3.995191097E+000 4.010943890E+000 3.997370243E+000
 3.917317629E+000 3.816451073E+000 3.679772854E+000 3.555970430E+000 3.400578499E+000
 3.233563423E+000 3.219391584E+000 3.415066957E+000 3.703857422E+000 3.978951454E+000
 4.272799492E+000 4.503176212E+000 4.602080822E+000 4.607579231E+000 3.941297770E+000
 3.941973448E+000 3.948686838E+000 3.955399990E+000 3.956449270E+000 3.956011057E+000
 3.958981276E+000 3.986228943E+000 4.015402794E+000 3.997933149E+000 3.877691507E+000
 3.750723839E+000 3.606467962E+000 3.436712742E+000 3.286005735E+000 3.144869089E+000
 3.159063578E+000 3.352780819E+000 3.596251249E+000 3.858936787E+000 4.151399136E+000
 4.388906002E+000 4.546940327E+000 4.606976509E+000 3.921158791E+000 3.921908140E+000
 3.925930023E+000 3.930782557E+000 3.925694466E+000 3.916422129E+000 3.931876421E+000
 3.969554186E+000 3.988743544E+000 3.960761070E+000 3.881448746E+000 3.774767637E+000
 3.608023167E+000 3.407312632E+000 3.226137161E+000 3.092500448E+000 3.123993158E+000
 3.298777819E+000 3.555571556E+000 3.795003653E+000 4.004870415E+000 4.214571476E+000
 4.433146954E+000 4.573753834E+000 3.899417162E+000 3.900089979E+000 3.903352022E+000
 3.907176018E+000 3.900690079E+000 3.894950867E+000 3.918838024E+000 3.942163706E+000
 3.938002825E+000 3.894951344E+000 3.846008062E+000 3.777842045E+000 3.604793072E+000
 3.360500813E+000 3.153502226E+000 3.073315859E+000 3.125806570E+000 3.269795179E+000
 3.489794016E+000 3.745978355E+000 3.965100050E+000 4.124856949E+000 4.280129433E+000
 4.370963573E+000 3.884178162E+000 3.885228395E+000 3.888246775E+000 3.887831688E+000
 3.884691000E+000 3.892641544E+000 3.908415079E+000 3.912958622E+000 3.892907143E+000
 3.828070164E+000 3.736783504E+000 3.666247368E+000 3.531663418E+000 3.278638840E+000
 3.086967230E+000 3.075021267E+000 3.143509626E+000 3.242900848E+000 3.416141033E+000
 3.666423559E+000 3.906902075E+000 4.082496166E+000 4.198462009E+000 4.235292435E+000
 3.872308969E+000 3.873204947E+000 3.875410795E+000 3.875099421E+000 3.878442526E+000
 3.891888857E+000 3.900208235E+000 3.897287846E+000 3.869971991E+000 3.790060520E+000
 3.679560661E+000 3.532006025E+000 3.357904911E+000 3.185295820E+000 3.064795494E+000
 3.063810587E+000 3.117853880E+000 3.202094793E+000 3.372223139E+000 3.623207331E+000
 3.798711777E+000 3.961270809E+000 4.132406235E+000 4.173227787E+000 3.863303423E+000
 3.862683535E+000 3.857510567E+000 3.853041887E+000 3.858453274E+000 3.874189615E+000
 3.882335186E+000 3.864439964E+000 3.830876112E+000 3.742205620E+000 3.612925053E+000
 3.437916279E+000 3.254531384E+000 3.122263432E+000 3.042760134E+000 3.053159714E+000
 3.117379189E+000 3.198586464E+000 3.349426508E+000 3.593894005E+000 3.762017727E+000
 3.907520056E+000 4.070014954E+000 4.117178440E+000 3.858646631E+000 3.857950687E+000
 3.850778103E+000 3.842733145E+000 3.847110748E+000 3.863369942E+000 3.869359255E+000
 3.847210646E+000 3.797354460E+000 3.687002659E+000 3.536789656E+000 3.395909786E+000
 3.239918232E+000 3.094848394E+000 3.039911985E+000 3.064586401E+000 3.128171206E+000
 3.208123207E+000 3.349976063E+000 3.588052988E+000 3.754260302E+000 3.897621155E+000
 4.073558807E+000 4.137790203E+000 3.853076935E+000 3.853049755E+000 3.851653576E+000
 3.849922657E+000 3.858531237E+000 3.862150908E+000 3.852515936E+000 3.841159344E+000
 3.776357889E+000 3.625644922E+000 3.478149652E+000 3.343175411E+000 3.174724817E+000
 3.058198690E+000 3.041435480E+000 3.068310261E+000 3.138770580E+000 3.234901905E+000
 3.384799719E+000 3.618047476E+000 3.803437471E+000 3.923728943E+000 4.011152744E+000
 4.038101673E+000 3.842362642E+000 3.842902660E+000 3.844335794E+000 3.846846342E+000
 3.858060122E+000 3.861281872E+000 3.840414286E+000 3.798632145E+000 3.728019714E+000
 3.576407194E+000 3.398616314E+000 3.250119686E+000 3.114636421E+000 3.042048216E+000
 3.032057047E+000 3.059972048E+000 3.162277460E+000 3.268122673E+000 3.406022072E+000
 3.633972406E+000 3.808485031E+000 3.919840336E+000 4.000359058E+000 4.027607918E+000
 3.830240011E+000 3.831433535E+000 3.838086128E+000 3.844833851E+000 3.850998878E+000
 3.849870682E+000 3.825058699E+000 3.749799728E+000 3.671607733E+000 3.543537855E+000
 3.360178947E+000 3.217349052E+000 3.095795870E+000 3.031680584E+000 3.031579256E+000
 3.066581011E+000 3.161227703E+000 3.252945662E+000 3.394824028E+000 3.629709959E+000
 3.774897814E+000 3.897789717E+000 4.026367188E+000 4.057289124E+000 3.808724403E+000
 3.804583311E+000 3.803599596E+000 3.807832241E+000 3.814236403E+000 3.802706003E+000
 3.774137020E+000 3.694816828E+000 3.606290102E+000 3.495918751E+000 3.337040424E+000
 3.196667433E+000 3.079109192E+000 3.029583693E+000 3.038743496E+000 3.079582691E+000
 3.169882298E+000 3.299575329E+000 3.445125341E+000 3.637847424E+000 3.781958818E+000
 3.903764009E+000 4.040450096E+000 4.081660748E+000 3.781704426E+000 3.776121140E+000
 3.770580053E+000 3.773763657E+000 3.780651808E+000 3.755601883E+000 3.711872578E+000
 3.616239548E+000 3.491476536E+000 3.402013302E+000 3.279038429E+000 3.140492201E+000
 3.053410292E+000 3.028893471E+000 3.040840626E+000 3.080765963E+000 3.182742834E+000
 3.371329546E+000 3.518311262E+000 3.658478498E+000 3.829978704E+000 3.946459055E+000
 4.055818081E+000 4.112373352E+000 3.771199226E+000 3.764110804E+000 3.758061886E+000
 3.768269777E+000 3.772412300E+000 3.747034788E+000 3.697679043E+000 3.576075554E+000
 3.411815882E+000 3.325245142E+000 3.234489441E+000 3.105630875E+000 3.038773298E+000
 3.030821800E+000 3.054360628E+000 3.092797279E+000 3.181986094E+000 3.321222782E+000
 3.468502283E+000 3.661375284E+000 3.868955374E+000 3.977544308E+000 4.040988445E+000
 4.089269161E+000 3.780857086E+000 3.772336245E+000 3.764355659E+000 3.771211624E+000
 3.772773743E+000 3.761810541E+000 3.712941647E+000 3.581787348E+000 3.410971403E+000
 3.307377577E+000 3.209375143E+000 3.081884146E+000 3.026792765E+000 3.028901577E+000
 3.056161880E+000 3.100213766E+000 3.189601898E+000 3.325307131E+000 3.471436501E+000
 3.658861160E+000 3.826230049E+000 3.940220833E+000 4.053552628E+000 4.110339642E+000
 3.788387537E+000 3.786560774E+000 3.794626236E+000 3.803387165E+000 3.789171219E+000
 3.766880989E+000 3.701100588E+000 3.556903601E+000 3.412410021E+000 3.296672583E+000
 3.169953108E+000 3.064877510E+000 3.024609804E+000 3.025144339E+000 3.046166897E+000
 3.098142147E+000 3.208329439E+000 3.398689270E+000 3.543848991E+000 3.675060272E+000
 3.802950382E+000 3.919452429E+000 4.046273232E+000 4.081202984E+000 3.811932325E+000
 3.812678814E+000 3.823001385E+000 3.828736782E+000 3.792415619E+000 3.745877743E+000
 3.664451838E+000 3.536948681E+000 3.396231174E+000 3.243323803E+000 3.128472805E+000
 3.056416273E+000 3.024870634E+000 3.029230595E+000 3.054412127E+000 3.110741377E+000
 3.229071617E+000 3.421957731E+000 3.563258648E+000 3.689530134E+000 3.812524796E+000
 3.923636436E+000 4.038781166E+000 4.066154957E+000 3.837715149E+000 3.836981058E+000
 3.834861040E+000 3.823015451E+000 3.787819862E+000 3.731280804E+000 3.626014471E+000
 3.491583347E+000 3.327657938E+000 3.178187132E+000 3.098760128E+000 3.045397282E+000
 3.026184797E+000 3.042057991E+000 3.070683956E+000 3.126878262E+000 3.242769957E+000
 3.382811785E+000 3.518936396E+000 3.686856508E+000 3.809729576E+000 3.916807413E+000
 4.028895378E+000 4.056097507E+000 3.792150259E+000 3.791756630E+000 3.798663616E+000
 3.792663097E+000 3.773643255E+000 3.727088690E+000 3.602289677E+000 3.420486927E+000
 3.260032654E+000 3.157916546E+000 3.080429554E+000 3.032273769E+000 3.028445959E+000
 3.056156635E+000 3.098997831E+000 3.148507595E+000 3.248420000E+000 3.383922338E+000
 3.517149925E+000 3.687919378E+000 3.844998121E+000 3.947433949E+000 4.027245998E+000
 4.059709549E+000 3.713957071E+000 3.728746176E+000 3.753265381E+000 3.757559776E+000
 3.728211641E+000 3.679182768E+000 3.563244581E+000 3.390206814E+000 3.246497631E+000
 3.136831284E+000 3.057600021E+000 3.024722338E+000 3.031096697E+000 3.062258482E+000
 3.115514994E+000 3.160451889E+000 3.256855488E+000 3.444077015E+000 3.575499773E+000
 3.697535753E+000 3.848945856E+000 3.960445881E+000 4.065646648E+000 4.116620541E+000
 3.675190926E+000 3.690225124E+000 3.718714476E+000 3.730427742E+000 3.683362484E+000
 3.619958162E+000 3.509757996E+000 3.347543955E+000 3.223406553E+000 3.116180420E+000
 3.043303728E+000 3.025222540E+000 3.037277460E+000 3.071634054E+000 3.130294323E+000
 3.181270599E+000 3.287031412E+000 3.483615637E+000 3.616700888E+000 3.732244015E+000
 3.844640493E+000 3.949118376E+000 4.076831341E+000 4.122775555E+000 3.678675652E+000
 3.685492277E+000 3.709392071E+000 3.722832918E+000 3.692716360E+000 3.632641077E+000
 3.500422478E+000 3.324962378E+000 3.198515892E+000 3.104805470E+000 3.042783260E+000
 3.026304960E+000 3.043400049E+000 3.088480949E+000 3.158976555E+000 3.228440285E+000
 3.357961655E+000 3.546229839E+000 3.656920671E+000 3.765464306E+000 3.871967077E+000
 3.960010290E+000 4.065460205E+000 4.103314877E+000 3.689032555E+000 3.704213381E+000
 3.725105524E+000 3.727209091E+000 3.701918364E+000 3.648763418E+000 3.517529488E+000
 3.336814165E+000 3.195434570E+000 3.089598894E+000 3.032871962E+000 3.026518583E+000
 3.052895069E+000 3.106094599E+000 3.162217379E+000 3.240824223E+000 3.404561520E+000
 3.598804712E+000 3.704244137E+000 3.804004669E+000 3.901471376E+000 3.978372097E+000
 4.056360245E+000 4.074838638E+000 3.703961611E+000 3.716626644E+000 3.729886770E+000
 3.725083113E+000 3.678463936E+000 3.621432304E+000 3.519551754E+000 3.344484806E+000
 3.177785873E+000 3.064437389E+000 3.024337053E+000 3.026299238E+000 3.058519840E+000
 3.117287397E+000 3.183616877E+000 3.264097691E+000 3.436379671E+000 3.665328264E+000
 3.790073872E+000 3.875985861E+000 3.956077576E+000 4.021081924E+000 4.083246231E+000
 4.094768047E+000 3.718652964E+000 3.728352070E+000 3.736937523E+000 3.718368053E+000
 3.648813248E+000 3.579957962E+000 3.480597734E+000 3.299601555E+000 3.131214857E+000
 3.042642117E+000 3.022815704E+000 3.027355194E+000 3.062538862E+000 3.142659903E+000
 3.261002541E+000 3.354705572E+000 3.506331921E+000 3.729171038E+000 3.845864058E+000
 3.925687790E+000 4.013545990E+000 4.067913055E+000 4.108302593E+000 4.122164249E+000
 3.720316648E+000 3.732862711E+000 3.743110895E+000 3.710579395E+000 3.615703583E+000
 3.498193502E+000 3.390017271E+000 3.233732224E+000 3.088437319E+000 3.033647299E+000
 3.023540735E+000 3.033102989E+000 3.075566769E+000 3.176164865E+000 3.329386473E+000
 3.441735744E+000 3.577019930E+000 3.765086889E+000 3.861412287E+000 3.939563513E+000
 4.027714729E+000 4.078656197E+000 4.111261368E+000 4.120210171E+000 3.707027912E+000
 3.721301556E+000 3.734782934E+000 3.712624311E+000 3.616469860E+000 3.456286192E+000
 3.314395666E+000 3.185101748E+000 3.071837902E+000 3.026643515E+000 3.024692297E+000
 3.046439171E+000 3.088450193E+000 3.187038183E+000 3.368796110E+000 3.502384424E+000
 3.623502970E+000 3.791843653E+000 3.882223129E+000 3.952121258E+000 4.017797470E+000
 4.063852787E+000 4.105255604E+000 4.111768723E+000 3.692141533E+000 3.705823898E+000
 3.720653534E+000 3.714612484E+000 3.637228966E+000 3.482687950E+000 3.314047337E+000
 3.178090096E+000 3.078728914E+000 3.026691914E+000 3.029172897E+000 3.060655355E+000
 3.097123623E+000 3.191081762E+000 3.397042513E+000 3.590397596E+000 3.710462332E+000
 3.826433182E+000 3.906279802E+000 3.969363689E+000 4.028109550E+000 4.069140434E+000
 4.102931499E+000 4.105373383E+000 3.686085463E+000 3.698868752E+000 3.708501816E+000
 3.700482130E+000 3.636936665E+000 3.494369745E+000 3.333522081E+000 3.203970432E+000
 3.092681885E+000 3.028289318E+000 3.029619694E+000 3.060346365E+000 3.108836889E+000
 3.207183838E+000 3.395569086E+000 3.580154896E+000 3.707843304E+000 3.827797651E+000
 3.903120279E+000 3.965857029E+000 4.043806076E+000 4.093859673E+000 4.120906830E+000
 4.127223969E+000 3.681571484E+000 3.695920944E+000 3.702872515E+000 3.688103199E+000
 3.621860266E+000 3.509669304E+000 3.354958773E+000 3.200388432E+000 3.090344906E+000
 3.029560089E+000 3.031643629E+000 3.065879583E+000 3.156949043E+000 3.265112400E+000
 3.406033754E+000 3.528478384E+000 3.646097898E+000 3.809198380E+000 3.895125866E+000
 3.959237576E+000 4.051349163E+000 4.100557327E+000 4.113377571E+000 4.120412350E+000
 3.687047720E+000 3.701128721E+000 3.706136465E+000 3.689356565E+000 3.621017694E+000
 3.500653267E+000 3.335398912E+000 3.177479744E+000 3.077875614E+000 3.028136730E+000
 3.033750296E+000 3.084128618E+000 3.177828789E+000 3.282374859E+000 3.435917616E+000
 3.561971903E+000 3.665329218E+000 3.812433243E+000 3.894894600E+000 3.956017971E+000
 4.037397385E+000 4.076339245E+000 4.081302643E+000 4.082040310E+000 3.694169521E+000
 3.709560394E+000 3.719019651E+000 3.699504614E+000 3.624933004E+000 3.470817089E+000
 3.297848940E+000 3.168998241E+000 3.074871302E+000 3.025788784E+000 3.028623819E+000
 3.082784176E+000 3.144514561E+000 3.239813805E+000 3.442692995E+000 3.625546932E+000
 3.729140520E+000 3.825926542E+000 3.891216516E+000 3.945281982E+000 4.006886482E+000
 4.040909767E+000 4.056948185E+000 4.058655262E+000 3.713860512E+000 3.721698284E+000
 3.719857454E+000 3.694795132E+000 3.613229990E+000 3.461783409E+000 3.296535254E+000
 3.168742180E+000 3.075635672E+000 3.025855780E+000 3.025992870E+000 3.064289570E+000
 3.123420715E+000 3.231607199E+000 3.433547258E+000 3.613461018E+000 3.720749378E+000
 3.814947844E+000 3.872564793E+000 3.918872118E+000 3.962266684E+000 3.993864775E+000
 4.030257702E+000 4.043048859E+000 3.735839367E+000 3.734205961E+000 3.709435701E+000
 3.675406694E+000 3.594678640E+000 3.445492029E+000 3.285299301E+000 3.159057140E+000
 3.071811438E+000 3.029022217E+000 3.044148922E+000 3.092484236E+000 3.149017334E+000
 3.249026775E+000 3.427500486E+000 3.554888725E+000 3.654484987E+000 3.785013437E+000
 3.851183653E+000 3.898974895E+000 3.951572657E+000 3.980093479E+000 3.999199629E+000
 4.006036758E+000 3.729402304E+000 3.732226849E+000 3.720473051E+000 3.688503265E+000
 3.595887661E+000 3.435364962E+000 3.268308878E+000 3.145957947E+000 3.067333698E+000
 3.029967546E+000 3.056495428E+000 3.122902870E+000 3.175894260E+000 3.258652449E+000
 3.431604147E+000 3.558163881E+000 3.652805328E+000 3.778698206E+000 3.844414949E+000
 3.891365767E+000 3.947495699E+000 3.969944715E+000 3.970284224E+000 3.968438625E+000
 3.700747013E+000 3.711254835E+000 3.720454454E+000 3.695985794E+000 3.596647263E+000
 3.434144020E+000 3.264797688E+000 3.140914202E+000 3.064172745E+000 3.026065588E+000
 3.038517237E+000 3.095418930E+000 3.151206255E+000 3.239959002E+000 3.426058054E+000
 3.562301636E+000 3.660226107E+000 3.782002211E+000 3.840234518E+000 3.880652428E+000
 3.929903507E+000 3.951147556E+000 3.957508564E+000 3.961471081E+000 3.681621313E+000
 3.695425272E+000 3.708109140E+000 3.684238434E+000 3.595381260E+000 3.475437880E+000
 3.315198660E+000 3.162575722E+000 3.080597639E+000 3.034342766E+000 3.028419018E+000
 3.066488504E+000 3.130188704E+000 3.236361504E+000 3.419589758E+000 3.551954985E+000
 3.649141550E+000 3.766583204E+000 3.820257902E+000 3.859560013E+000 3.904167652E+000
 3.932142258E+000 3.948432446E+000 3.950775623E+000 3.671477556E+000 3.683703899E+000
 3.694237947E+000 3.666023731E+000 3.575048447E+000 3.486192226E+000 3.343090773E+000
 3.176108122E+000 3.092705727E+000 3.042280197E+000 3.034886122E+000 3.068594933E+000
 3.137412310E+000 3.246271610E+000 3.398137093E+000 3.506010532E+000 3.599175692E+000
 3.720421076E+000 3.779433489E+000 3.820967197E+000 3.881201744E+000 3.925188065E+000
 3.941901922E+000 3.942909956E+000 3.662842274E+000 3.675107002E+000 3.685388565E+000
 3.655730247E+000 3.567309618E+000 3.482242346E+000 3.337145090E+000 3.179336786E+000
 3.098058939E+000 3.040404320E+000 3.037970781E+000 3.073771000E+000 3.133803606E+000
 3.223595381E+000 3.350980759E+000 3.444203615E+000 3.539151907E+000 3.678106546E+000
 3.753330231E+000 3.795497894E+000 3.854199648E+000 3.884302139E+000 3.875712156E+000
 3.864547253E+000 3.670264006E+000 3.678161860E+000 3.696078539E+000 3.691652060E+000
 3.647817612E+000 3.581356049E+000 3.424635649E+000 3.242571592E+000 3.127446651E+000
 3.050789118E+000 3.031942129E+000 3.059812069E+000 3.109477043E+000 3.183716059E+000
 3.313487768E+000 3.416648149E+000 3.511196136E+000 3.647287130E+000 3.720369816E+000
 3.753604889E+000 3.781956673E+000 3.787420988E+000 3.781853914E+000 3.776272535E+000
 3.700017214E+000 3.701522350E+000 3.718724251E+000 3.729489803E+000 3.698658228E+000
 3.638879299E+000 3.506453514E+000 3.309044600E+000 3.157982111E+000 3.073471785E+000
 3.034360647E+000 3.045809507E+000 3.090378046E+000 3.160266638E+000 3.286339760E+000
 3.388323307E+000 3.477821350E+000 3.594894648E+000 3.650988579E+000 3.678020477E+000
 3.706160069E+000 3.716950893E+000 3.721860647E+000 3.725498915E+000 3.725367308E+000
 3.732736826E+000 3.745247602E+000 3.743228912E+000 3.693834543E+000 3.634528637E+000
 3.530365467E+000 3.358913898E+000 3.213952780E+000 3.116492033E+000 3.053894281E+000
 3.035777330E+000 3.079542160E+000 3.158148527E+000 3.262148857E+000 3.340340614E+000
 3.421021938E+000 3.538107395E+000 3.600951195E+000 3.635160446E+000 3.668946981E+000
 3.682277441E+000 3.684622049E+000 3.682613134E+000 3.719130993E+000 3.726389408E+000
 3.742373228E+000 3.746210814E+000 3.711913109E+000 3.669522047E+000 3.584051847E+000
 3.416668653E+000 3.249570847E+000 3.134113073E+000 3.059288502E+000 3.027892351E+000
 3.059197187E+000 3.126518488E+000 3.223262310E+000 3.300122499E+000 3.381399155E+000
 3.514933109E+000 3.595849991E+000 3.633812666E+000 3.666995287E+000 3.678526402E+000
 3.682976484E+000 3.683213711E+000 3.710344315E+000 3.714694500E+000 3.728404522E+000
 3.740403891E+000 3.727999926E+000 3.705229521E+000 3.643779516E+000 3.457614183E+000
 3.263690710E+000 3.153999567E+000 3.067882061E+000 3.026568651E+000 3.037714005E+000
 3.078845978E+000 3.156503201E+000 3.242336988E+000 3.350894690E+000 3.506414413E+000
 3.603330612E+000 3.649319887E+000 3.689292669E+000 3.706647396E+000 3.716496229E+000
 3.717588663E+000 3.690791607E+000 3.694035053E+000 3.699217319E+000 3.712463379E+000
 3.719564438E+000 3.711713314E+000 3.668982029E+000 3.501481533E+000 3.311095715E+000
 3.195920706E+000 3.096676111E+000 3.037375689E+000 3.029532671E+000 3.061631203E+000
 3.124359608E+000 3.209918261E+000 3.335717201E+000 3.492408514E+000 3.589089155E+000
 3.651387215E+000 3.719712019E+000 3.752907991E+000 3.767293930E+000 3.771112680E+000
 3.683314800E+000 3.677936554E+000 3.681468248E+000 3.698458910E+000 3.704659224E+000
 3.685575247E+000 3.645606518E+000 3.526764870E+000 3.349513769E+000 3.232308388E+000
 3.152293205E+000 3.069067717E+000 3.028127670E+000 3.046524525E+000 3.102537632E+000
 3.183418512E+000 3.305788755E+000 3.455342054E+000 3.544928074E+000 3.616098642E+000
 3.696277857E+000 3.746355772E+000 3.779165983E+000 3.787219763E+000 3.687790155E+000
 3.682265520E+000 3.685839176E+000 3.704698801E+000 3.712217569E+000 3.684906244E+000
 3.647430420E+000 3.562031031E+000 3.434025764E+000 3.315351248E+000 3.197779655E+000
 3.094818592E+000 3.036574125E+000 3.031795263E+000 3.066546440E+000 3.135146141E+000
 3.232126713E+000 3.332945347E+000 3.420916080E+000 3.537111759E+000 3.625801325E+000
 3.700114012E+000 3.768947124E+000 3.779064655E+000 3.712604523E+000 3.710915089E+000
 3.710948706E+000 3.725752831E+000 3.738674641E+000 3.724020243E+000 3.697985649E+000
 3.620517731E+000 3.528902531E+000 3.384116411E+000 3.202033043E+000 3.095703602E+000
 3.039964437E+000 3.026266813E+000 3.041911840E+000 3.092239618E+000 3.162478924E+000
 3.214253426E+000 3.312788725E+000 3.486190081E+000 3.612657785E+000 3.686935186E+000
 3.730775118E+000 3.735282421E+000 3.751847982E+000 3.746561766E+000 3.743183136E+000
 3.760603189E+000 3.776083469E+000 3.756768227E+000 3.725625515E+000 3.647142172E+000
 3.555211306E+000 3.413872480E+000 3.253585815E+000 3.149609566E+000 3.065682173E+000
 3.032081127E+000 3.024694204E+000 3.046717882E+000 3.099042416E+000 3.160429955E+000
 3.268585443E+000 3.432185650E+000 3.573991776E+000 3.639900208E+000 3.666614532E+000
 3.685020685E+000 3.780244350E+000 3.787603617E+000 3.797324896E+000 3.811420918E+000
 3.813575745E+000 3.772745609E+000 3.727243900E+000 3.648292780E+000 3.560428858E+000
 3.444666147E+000 3.329140186E+000 3.238227129E+000 3.129738092E+000 3.066053867E+000
 3.032720089E+000 3.026953459E+000 3.057069302E+000 3.118373871E+000 3.208521128E+000
 3.335251570E+000 3.447543621E+000 3.532536745E+000 3.616774559E+000 3.657016754E+000
 3.801656723E+000 3.824803829E+000 3.848928928E+000 3.843841791E+000 3.823958874E+000
 3.775193930E+000 3.725189924E+000 3.651420355E+000 3.571791887E+000 3.475801706E+000
 3.379851103E+000 3.293865919E+000 3.173732042E+000 3.086753130E+000 3.039262295E+000
 3.024504900E+000 3.041233778E+000 3.090039492E+000 3.164956331E+000 3.273704290E+000
 3.358870983E+000 3.459988356E+000 3.589300871E+000 3.636078119E+000 3.781459570E+000
 3.792857885E+000 3.803436756E+000 3.796762943E+000 3.786811590E+000 3.763719320E+000
 3.727834225E+000 3.679642677E+000 3.620191097E+000 3.551621675E+000 3.466566324E+000
 3.340505838E+000 3.212853670E+000 3.129000902E+000 3.065635443E+000 3.031527996E+000
 3.027463913E+000 3.062129736E+000 3.136289358E+000 3.218861103E+000 3.296280622E+000
 3.429236412E+000 3.584298134E+000 3.645123482E+000 3.744201660E+000 3.743310928E+000
 3.737860918E+000 3.720825434E+000 3.717797518E+000 3.726831436E+000 3.711718798E+000
 3.690623522E+000 3.649870872E+000 3.577943325E+000 3.498048306E+000 3.384206295E+000
 3.292612553E+000 3.225315332E+000 3.136592150E+000 3.069283247E+000 3.034262180E+000
 3.039454222E+000 3.097398520E+000 3.163540363E+000 3.249750376E+000 3.414450169E+000
 3.583561659E+000 3.651856899E+000 3.705148935E+000 3.703111887E+000 3.690022230E+000
 3.665884495E+000 3.662033081E+000 3.674099445E+000 3.669456244E+000 3.653946877E+000
 3.626616716E+000 3.560690403E+000 3.500152588E+000 3.437486410E+000 3.372392654E+000
 3.288443089E+000 3.173013926E+000 3.102514267E+000 3.054431200E+000 3.029216528E+000
 3.055093050E+000 3.113402367E+000 3.210176945E+000 3.356293440E+000 3.475495100E+000
 3.511896372E+000 3.672789097E+000 3.670542240E+000 3.656391859E+000 3.635664225E+000
 3.625535011E+000 3.627500296E+000 3.636794806E+000 3.638048172E+000 3.628656149E+000
 3.601634979E+000 3.566197157E+000 3.485754013E+000 3.382214785E+000 3.298522234E+000
 3.196863651E+000 3.114782333E+000 3.058053017E+000 3.025747299E+000 3.029318571E+000
 3.059114933E+000 3.123265028E+000 3.214076519E+000 3.270599127E+000 3.275813103E+000
 3.652180672E+000 3.650809288E+000 3.643521070E+000 3.622553110E+000 3.606915951E+000
 3.619485617E+000 3.642642021E+000 3.654411793E+000 3.660824537E+000 3.657383919E+000
 3.623965263E+000 3.538330555E+000 3.444780111E+000 3.369435310E+000 3.251239538E+000
 3.128552914E+000 3.057028294E+000 3.026544571E+000 3.021085739E+000 3.028022766E+000
 3.052269936E+000 3.090284824E+000 3.118481874E+000 3.125437260E+000 3.648576260E+000
 3.648159266E+000 3.648051500E+000 3.641169548E+000 3.632179976E+000 3.643785477E+000
 3.672911167E+000 3.690695286E+000 3.693161011E+000 3.690814734E+000 3.666957855E+000
 3.610242367E+000 3.559442282E+000 3.461170912E+000 3.292190075E+000 3.173895359E+000
 3.100132704E+000 3.047784805E+000 3.031257391E+000 3.023941278E+000 3.027809143E+000
 3.036931038E+000 3.045492887E+000 3.050580978E+000 3.665066004E+000 3.665349007E+000
 3.668847561E+000 3.672253132E+000 3.671852350E+000 3.680973053E+000 3.704427242E+000
 3.719124556E+000 3.715382814E+000 3.709412336E+000 3.702126026E+000 3.649800777E+000
 3.564074993E+000 3.469091892E+000 3.348041296E+000 3.264871836E+000 3.183140039E+000
 3.097205162E+000 3.067080975E+000 3.044712782E+000 3.028103113E+000 3.025994301E+000
 3.025475025E+000 3.024312496E+000 3.682789803E+000 3.683398008E+000 3.686332703E+000
 3.691807270E+000 3.702119589E+000 3.718117952E+000 3.727139473E+000 3.730698586E+000
 3.734622717E+000 3.729611397E+000 3.713044882E+000 3.668875694E+000 3.578536510E+000
 3.505451441E+000 3.429581404E+000 3.332396984E+000 3.255060911E+000 3.183911562E+000
 3.128759384E+000 3.086954594E+000 3.059880733E+000 3.041246891E+000 3.029600143E+000
 3.027454615E+000 3.695554256E+000 3.696097612E+000 3.697660208E+000 3.701649904E+000
 3.710422754E+000 3.717633724E+000 3.716959953E+000 3.718832731E+000 3.728250265E+000
 3.728898048E+000 3.715051889E+000 3.690752506E+000 3.644300699E+000 3.578035831E+000
 3.478278160E+000 3.377421856E+000 3.312112808E+000 3.266851664E+000 3.218594313E+000
 3.160619974E+000 3.112209558E+000 3.073717117E+000 3.055748940E+000 3.054221630E+000
 3.698589563E+000 3.698761225E+000 3.699549437E+000 3.702336311E+000 3.704942942E+000
 3.705465317E+000 3.701444864E+000 3.697423458E+000 3.702477932E+000 3.708162308E+000
 3.706936836E+000 3.690163374E+000 3.666240454E+000 3.604406357E+000 3.515832424E+000
 3.471253872E+000 3.429759741E+000 3.378555775E+000 3.329483747E+000 3.259684086E+000
 3.197451591E+000 3.163204908E+000 3.138665676E+000 3.124763250E+000 3.696603298E+000
 3.696491480E+000 3.696621180E+000 3.698394060E+000 3.699407578E+000 3.696977615E+000
 3.691558838E+000 3.682732582E+000 3.677122831E+000 3.684218884E+000 3.694592953E+000
 3.693079472E+000 3.681014776E+000 3.645619392E+000 3.600173235E+000 3.566709280E+000
 3.536394119E+000 3.495429516E+000 3.430459976E+000 3.354875088E+000 3.306185722E+000
 3.286252499E+000 3.246193886E+000 3.212495565E+000 3.695439577E+000 3.695290804E+000
 3.694503546E+000 3.691846609E+000 3.688746929E+000 3.685456514E+000 3.680712223E+000
 3.672283649E+000 3.662807703E+000 3.666880369E+000 3.683667898E+000 3.695736408E+000
 3.694360256E+000 3.686938286E+000 3.664119720E+000 3.620387077E+000 3.577918053E+000
 3.547423363E+000 3.514555693E+000 3.472474813E+000 3.426071405E+000 3.374414682E+000
 3.324896336E+000 3.301511049E+000 3.690244198E+000 3.690036774E+000 3.688972473E+000
 3.685410738E+000 3.681818247E+000 3.679899454E+000 3.678130865E+000 3.675822258E+000
 3.666170835E+000 3.658849955E+000 3.673095465E+000 3.690776825E+000 3.693266630E+000
 3.686249495E+000 3.673665047E+000 3.656419754E+000 3.631545305E+000 3.600474834E+000
 3.571551561E+000 3.552676439E+000 3.521964312E+000 3.456928253E+000 3.409355164E+000
 3.403873920E+000 3.685443878E+000 3.684385777E+000 3.682722092E+000 3.681110859E+000
 3.679706335E+000 3.679238796E+000 3.679025173E+000 3.678440094E+000 3.674336433E+000
 3.673713446E+000 3.684792042E+000 3.693941593E+000 3.692963362E+000 3.683303595E+000
 3.673040152E+000 3.669018745E+000 3.665256977E+000 3.648647308E+000 3.612621307E+000
 3.586010218E+000 3.575352669E+000 3.541561127E+000 3.506043434E+000 3.502781391E+000
 3.684875488E+000 3.682900429E+000 3.680827379E+000 3.680260897E+000 3.679897308E+000
 3.679741144E+000 3.679966450E+000 3.680721760E+000 3.681837797E+000 3.687193632E+000
 3.692901850E+000 3.693728924E+000 3.691026211E+000 3.681931496E+000 3.673343182E+000
 3.669874668E+000 3.666817904E+000 3.661279440E+000 3.635547876E+000 3.609174013E+000
 3.600196362E+000 3.574933052E+000 3.551909208E+000 3.547556162E+000
 1 2 26 25
 2 3 27 26
 3 4 28 27
 4 5 29 28
 5 6 30 29
 6 7 31 30
 7 8 32 31
 8 9 33 32
 9 10 34 33
 10 11 35 34
 11 12 36 35
 12 13 37 36
 13 14 38 37
 14 15 39 38
 15 16 40 39
 16 17 41 40
 17 18 42 41
 18 19 43 42
 19 20 44 43
 20 21 45 44
 21 22 46 45
 22 23 47 46
 23 24 48 47
 25 26 50 49
 26 27 51 50
 27 28 52 51
 28 29 53 52
 29 30 54 53
 30 31 55 54
 31 32 56 55
 32 33 57 56
 33 34 58 57
 34 35 59 58
 35 36 60 59
 36 37 61 60
 37 38 62 61
 38 39 63 62
 39 40 64 63
 40 41 65 64
 41 42 66 65