TITLE     = ""
VARIABLES = "X" 
"Y"
"Cell Elevation"
ZONE T="ZONE 001"
 STRANDID=0, SOLUTIONTIME=0
 I=1610, J=1, K=1, ZONETYPE=Ordered
 DATAPACKING=POINT
 DT=(SINGLE SINGLE SINGLE )
1.616850090E+001 5.715000033E-001 4.405900002E+000 
1.544989967E+001 5.715000033E-001 4.416999817E+000 
1.473130035E+001 5.715000033E-001 4.423999786E+000 
1.401270008E+001 5.715000033E-001 4.452700138E+000 
1.329409981E+001 5.715000033E-001 4.595699787E+000 
1.257549953E+001 5.715000033E-001 4.595699787E+000 
1.185690022E+001 5.715000033E-001 4.629499912E+000 
1.113829994E+001 5.715000033E-001 4.629499912E+000 
1.041969967E+001 5.715000033E-001 4.381800175E+000 
9.701099396E+000 5.715000033E-001 4.381800175E+000 
8.982500076E+000 5.715000033E-001 4.381800175E+000 
8.263899803E+000 5.715000033E-001 4.190199852E+000 
7.545300007E+000 5.715000033E-001 4.190199852E+000 
6.826699734E+000 5.715000033E-001 4.190199852E+000 
6.108100414E+000 5.715000033E-001 4.088300228E+000 
5.389500141E+000 5.715000033E-001 4.084099770E+000 
4.670899868E+000 5.715000033E-001 4.079500198E+000 
3.952300549E+000 5.715000033E-001 4.077199936E+000 
3.233700275E+000 5.715000033E-001 4.060500145E+000 
2.515100002E+000 5.715000033E-001 4.058700085E+000 
1.796499610E+000 5.715000033E-001 4.057700157E+000 
1.077900290E+000 5.715000033E-001 4.056799889E+000 
3.592990935E-001 5.715000033E-001 4.056300163E+000 
1.616850090E+001 1.714499950E+000 4.410999775E+000 
1.544989967E+001 1.714499950E+000 4.412899971E+000 
1.473130035E+001 1.714499950E+000 4.415200233E+000 
1.401270008E+001 1.714499950E+000 4.428100109E+000 
1.329409981E+001 1.714499950E+000 4.595699787E+000 
1.257549953E+001 1.714499950E+000 4.595699787E+000 
1.185690022E+001 1.714499950E+000 4.307799816E+000 
1.113829994E+001 1.714499950E+000 4.307799816E+000 
1.041969967E+001 1.714499950E+000 4.321599960E+000 
9.701099396E+000 1.714499950E+000 4.095200062E+000 
8.982500076E+000 1.714499950E+000 4.153999805E+000 
8.263899803E+000 1.714499950E+000 4.153999805E+000 
7.545300007E+000 1.714499950E+000 4.045199871E+000 
6.826699734E+000 1.714499950E+000 4.081299782E+000 
6.108100414E+000 1.714499950E+000 4.081299782E+000 
5.389500141E+000 1.714499950E+000 4.073900223E+000 
4.670899868E+000 1.714499950E+000 4.055399895E+000 
3.952300549E+000 1.714499950E+000 4.056799889E+000 
3.233700275E+000 1.714499950E+000 4.022999763E+000 
2.515100002E+000 1.714499950E+000 4.022099972E+000 
1.796499610E+000 1.714499950E+000 4.021200180E+000 
1.077900290E+000 1.714499950E+000 4.015600204E+000 
3.592990935E-001 1.714499950E+000 4.014699936E+000 
1.616850090E+001 2.857500076E+000 4.379099846E+000 
1.544989967E+001 2.857500076E+000 4.387400150E+000 
1.473130035E+001 2.857500076E+000 4.563300133E+000 
1.401270008E+001 2.857500076E+000 4.563300133E+000 
1.329409981E+001 2.857500076E+000 4.563300133E+000 
1.257549953E+001 2.857500076E+000 4.059999943E+000 
1.185690022E+001 2.857500076E+000 4.059999943E+000 
1.113829994E+001 2.857500076E+000 3.859999895E+000 
1.041969967E+001 2.857500076E+000 3.859999895E+000 
9.701099396E+000 2.857500076E+000 4.095200062E+000 
8.982500076E+000 2.857500076E+000 3.940599918E+000 
8.263899803E+000 2.857500076E+000 3.940599918E+000 
7.545300007E+000 2.857500076E+000 4.045199871E+000 
6.826699734E+000 2.857500076E+000 4.045199871E+000 
6.108100414E+000 2.857500076E+000 4.025300026E+000 
5.389500141E+000 2.857500076E+000 4.025300026E+000 
4.670899868E+000 2.857500076E+000 4.022999763E+000 
3.952300549E+000 2.857500076E+000 4.021200180E+000 
3.233700275E+000 2.857500076E+000 4.020199776E+000 
2.515100002E+000 2.857500076E+000 4.018400192E+000 
1.796499610E+000 2.857500076E+000 4.011899948E+000 
1.077900290E+000 2.857500076E+000 4.011400223E+000 
3.592990935E-001 2.857500076E+000 4.008200169E+000 
1.616850090E+001 4.000500202E+000 4.419300079E+000 
1.544989967E+001 4.000500202E+000 4.419799805E+000 
1.473130035E+001 4.000500202E+000 4.563300133E+000 
1.401270008E+001 4.000500202E+000 4.563300133E+000 
1.329409981E+001 4.000500202E+000 4.167900085E+000 
1.257549953E+001 4.000500202E+000 3.741499901E+000 
1.185690022E+001 4.000500202E+000 3.741499901E+000 
1.113829994E+001 4.000500202E+000 3.464200020E+000 
1.041969967E+001 4.000500202E+000 3.464200020E+000 
9.701099396E+000 4.000500202E+000 3.725300074E+000 
8.982500076E+000 4.000500202E+000 3.725300074E+000 
8.263899803E+000 4.000500202E+000 3.819799900E+000 
7.545300007E+000 4.000500202E+000 3.961400032E+000 
6.826699734E+000 4.000500202E+000 3.961400032E+000 
6.108100414E+000 4.000500202E+000 4.025300026E+000 
5.389500141E+000 4.000500202E+000 4.025300026E+000 
4.670899868E+000 4.000500202E+000 4.016099930E+000 
3.952300549E+000 4.000500202E+000 4.007699966E+000 
3.233700275E+000 4.000500202E+000 4.001699924E+000 
2.515100002E+000 4.000500202E+000 4.000299931E+000 
1.796499610E+000 4.000500202E+000 3.999900103E+000 
1.077900290E+000 4.000500202E+000 3.999399900E+000 
3.592990935E-001 4.000500202E+000 3.998899937E+000 
1.616850090E+001 5.143499851E+000 4.599899769E+000 
1.544989967E+001 5.143499851E+000 4.599899769E+000 
1.473130035E+001 5.143499851E+000 4.599899769E+000 
1.401270008E+001 5.143499851E+000 4.026199818E+000 
1.329409981E+001 5.143499851E+000 4.026199818E+000 
1.257549953E+001 5.143499851E+000 3.609100103E+000 
1.185690022E+001 5.143499851E+000 3.235899925E+000 
1.113829994E+001 5.143499851E+000 3.235899925E+000 
1.041969967E+001 5.143499851E+000 3.296999931E+000 
9.701099396E+000 5.143499851E+000 3.649800062E+000 
8.982500076E+000 5.143499851E+000 3.649800062E+000 
8.263899803E+000 5.143499851E+000 3.819799900E+000 
7.545300007E+000 5.143499851E+000 3.936899900E+000 
6.826699734E+000 5.143499851E+000 3.936899900E+000 
6.108100414E+000 5.143499851E+000 4.021200180E+000 
5.389500141E+000 5.143499851E+000 3.986000061E+000 
4.670899868E+000 5.143499851E+000 3.986000061E+000 
3.952300549E+000 5.143499851E+000 3.997999907E+000 
3.233700275E+000 5.143499851E+000 3.997499943E+000 
2.515100002E+000 5.143499851E+000 3.997100115E+000 
1.796499610E+000 5.143499851E+000 3.997100115E+000 
1.077900290E+000 5.143499851E+000 3.975300074E+000 
3.592990935E-001 5.143499851E+000 3.974900007E+000 
1.616850090E+001 6.286499977E+000 4.629499912E+000 
1.544989967E+001 6.286499977E+000 4.629499912E+000 
1.473130035E+001 6.286499977E+000 4.247099876E+000 
1.401270008E+001 6.286499977E+000 4.247099876E+000 
1.329409981E+001 6.286499977E+000 3.598000050E+000 
1.257549953E+001 6.286499977E+000 3.598000050E+000 
1.185690022E+001 6.286499977E+000 3.175299883E+000 
1.113829994E+001 6.286499977E+000 3.126199961E+000 
1.041969967E+001 6.286499977E+000 3.200000048E+000 
9.701099396E+000 6.286499977E+000 3.471100092E+000 
8.982500076E+000 6.286499977E+000 3.471100092E+000 
8.263899803E+000 6.286499977E+000 3.765599966E+000 
7.545300007E+000 6.286499977E+000 3.765599966E+000 
6.826699734E+000 6.286499977E+000 4.033699989E+000 
6.108100414E+000 6.286499977E+000 4.033699989E+000 
5.389500141E+000 6.286499977E+000 4.015600204E+000 
4.670899868E+000 6.286499977E+000 3.986000061E+000 
3.952300549E+000 6.286499977E+000 3.984600067E+000 
3.233700275E+000 6.286499977E+000 3.967900038E+000 
2.515100002E+000 6.286499977E+000 3.966500044E+000 
1.796499610E+000 6.286499977E+000 3.966099977E+000 
1.077900290E+000 6.286499977E+000 3.950799942E+000 
3.592990935E-001 6.286499977E+000 3.949899912E+000 
1.616850090E+001 7.429500103E+000 4.629499912E+000 
1.544989967E+001 7.429500103E+000 4.355899811E+000 
1.473130035E+001 7.429500103E+000 4.355899811E+000 
1.401270008E+001 7.429500103E+000 3.784600019E+000 
1.329409981E+001 7.429500103E+000 3.784600019E+000 
1.257549953E+001 7.429500103E+000 3.398000002E+000 
1.185690022E+001 7.429500103E+000 3.224299908E+000 
1.113829994E+001 7.429500103E+000 3.019999981E+000 
1.041969967E+001 7.429500103E+000 3.155800104E+000 
9.701099396E+000 7.429500103E+000 3.325299978E+000 
8.982500076E+000 7.429500103E+000 3.465100050E+000 
8.263899803E+000 7.429500103E+000 3.740099907E+000 
7.545300007E+000 7.429500103E+000 3.740099907E+000 
6.826699734E+000 7.429500103E+000 3.966099977E+000 
6.108100414E+000 7.429500103E+000 4.015600204E+000 
5.389500141E+000 7.429500103E+000 4.015600204E+000 
4.670899868E+000 7.429500103E+000 3.925800085E+000 
3.952300549E+000 7.429500103E+000 3.925800085E+000 
3.233700275E+000 7.429500103E+000 3.945699930E+000 
2.515100002E+000 7.429500103E+000 3.946099997E+000 
1.796499610E+000 7.429500103E+000 3.946099997E+000 
1.077900290E+000 7.429500103E+000 3.931799889E+000 
3.592990935E-001 7.429500103E+000 3.931799889E+000 
1.616850090E+001 8.572500229E+000 4.629499912E+000 
1.544989967E+001 8.572500229E+000 4.191100121E+000 
1.473130035E+001 8.572500229E+000 3.939199924E+000 
1.401270008E+001 8.572500229E+000 3.939199924E+000 
1.329409981E+001 8.572500229E+000 3.686399937E+000 
1.257549953E+001 8.572500229E+000 3.365999937E+000 
1.185690022E+001 8.572500229E+000 3.166500092E+000 
1.113829994E+001 8.572500229E+000 3.019999981E+000 
1.041969967E+001 8.572500229E+000 3.090500116E+000 
9.701099396E+000 8.572500229E+000 3.319700003E+000 
8.982500076E+000 8.572500229E+000 3.507699966E+000 
8.263899803E+000 8.572500229E+000 3.736399889E+000 
7.545300007E+000 8.572500229E+000 3.913700104E+000 
6.826699734E+000 8.572500229E+000 3.913700104E+000 
6.108100414E+000 8.572500229E+000 3.973000050E+000 
5.389500141E+000 8.572500229E+000 3.973000050E+000 
4.670899868E+000 8.572500229E+000 3.973000050E+000 
3.952300549E+000 8.572500229E+000 3.890599966E+000 
3.233700275E+000 8.572500229E+000 3.890599966E+000 
2.515100002E+000 8.572500229E+000 3.923899889E+000 
1.796499610E+000 8.572500229E+000 3.912400007E+000 
1.077900290E+000 8.572500229E+000 3.912400007E+000 
3.592990935E-001 8.572500229E+000 3.910000086E+000 
1.616850090E+001 9.715499878E+000 4.169799805E+000 
1.544989967E+001 9.715499878E+000 4.169799805E+000 
1.473130035E+001 9.715499878E+000 4.191100121E+000 
1.401270008E+001 9.715499878E+000 3.822999954E+000 
1.329409981E+001 9.715499878E+000 3.553999901E+000 
1.257549953E+001 9.715499878E+000 3.333600044E+000 
1.185690022E+001 9.715499878E+000 3.177099943E+000 
1.113829994E+001 9.715499878E+000 3.100699902E+000 
1.041969967E+001 9.715499878E+000 3.019999981E+000 
9.701099396E+000 9.715499878E+000 3.122499943E+000 
8.982500076E+000 9.715499878E+000 3.474800110E+000 
8.263899803E+000 9.715499878E+000 3.736399889E+000 
7.545300007E+000 9.715499878E+000 3.779900074E+000 
6.826699734E+000 9.715499878E+000 3.779900074E+000 
6.108100414E+000 9.715499878E+000 3.913300037E+000 
5.389500141E+000 9.715499878E+000 3.913300037E+000 
4.670899868E+000 9.715499878E+000 3.922100067E+000 
3.952300549E+000 9.715499878E+000 3.890599966E+000 
3.233700275E+000 9.715499878E+000 3.890599966E+000 
2.515100002E+000 9.715499878E+000 3.898900032E+000 
1.796499610E+000 9.715499878E+000 3.899399996E+000 
1.077900290E+000 9.715499878E+000 3.888299942E+000 
3.592990935E-001 9.715499878E+000 3.887799978E+000 
1.616850090E+001 1.085849953E+001 4.322100163E+000 
1.544989967E+001 1.085849953E+001 4.169799805E+000 
1.473130035E+001 1.085849953E+001 3.822999954E+000 
1.401270008E+001 1.085849953E+001 3.822999954E+000 
1.329409981E+001 1.085849953E+001 3.471600056E+000 
1.257549953E+001 1.085849953E+001 3.264600039E+000 
1.185690022E+001 1.085849953E+001 3.160399914E+000 
1.113829994E+001 1.085849953E+001 3.127599955E+000 
1.041969967E+001 1.085849953E+001 3.019999981E+000 
9.701099396E+000 1.085849953E+001 3.091000080E+000 
8.982500076E+000 1.085849953E+001 3.395200014E+000 
8.263899803E+000 1.085849953E+001 3.589200020E+000 
7.545300007E+000 1.085849953E+001 3.589200020E+000 
6.826699734E+000 1.085849953E+001 3.779900074E+000 
6.108100414E+000 1.085849953E+001 3.854000092E+000 
5.389500141E+000 1.085849953E+001 3.913300037E+000 
4.670899868E+000 1.085849953E+001 3.913300037E+000 
3.952300549E+000 1.085849953E+001 3.913300037E+000 
3.233700275E+000 1.085849953E+001 3.871599913E+000 
2.515100002E+000 1.085849953E+001 3.871599913E+000 
1.796499610E+000 1.085849953E+001 3.883599997E+000 
1.077900290E+000 1.085849953E+001 3.883599997E+000 
3.592990935E-001 1.085849953E+001 3.879499912E+000 
1.616850090E+001 1.200150013E+001 4.058700085E+000 
1.544989967E+001 1.200150013E+001 4.058700085E+000 
1.473130035E+001 1.200150013E+001 3.775799990E+000 
1.401270008E+001 1.200150013E+001 3.775799990E+000 
1.329409981E+001 1.200150013E+001 3.471600056E+000 
1.257549953E+001 1.200150013E+001 3.232700109E+000 
1.185690022E+001 1.200150013E+001 3.108999968E+000 
1.113829994E+001 1.200150013E+001 3.065999985E+000 
1.041969967E+001 1.200150013E+001 3.019999981E+000 
9.701099396E+000 1.200150013E+001 3.065500021E+000 
8.982500076E+000 1.200150013E+001 3.168800116E+000 
8.263899803E+000 1.200150013E+001 3.279000044E+000 
7.545300007E+000 1.200150013E+001 3.683599949E+000 
6.826699734E+000 1.200150013E+001 3.683599949E+000 
6.108100414E+000 1.200150013E+001 3.854000092E+000 
5.389500141E+000 1.200150013E+001 3.885999918E+000 
4.670899868E+000 1.200150013E+001 3.885999918E+000 
3.952300549E+000 1.200150013E+001 3.892899990E+000 
3.233700275E+000 1.200150013E+001 3.892899990E+000 
2.515100002E+000 1.200150013E+001 3.871599913E+000 
1.796499610E+000 1.200150013E+001 3.872100115E+000 
1.077900290E+000 1.200150013E+001 3.864200115E+000 
3.592990935E-001 1.200150013E+001 3.864200115E+000 
1.616850090E+001 1.314449978E+001 4.206799984E+000 
1.544989967E+001 1.314449978E+001 4.021599770E+000 
1.473130035E+001 1.314449978E+001 3.752599955E+000 
1.401270008E+001 1.314449978E+001 3.752599955E+000 
1.329409981E+001 1.314449978E+001 3.425699949E+000 
1.257549953E+001 1.314449978E+001 3.210400105E+000 
1.185690022E+001 1.314449978E+001 3.210400105E+000 
1.113829994E+001 1.314449978E+001 3.082200050E+000 
1.041969967E+001 1.314449978E+001 3.020100117E+000 
9.701099396E+000 1.314449978E+001 3.019999981E+000 
8.982500076E+000 1.314449978E+001 3.215100050E+000 
8.263899803E+000 1.314449978E+001 3.328000069E+000 
7.545300007E+000 1.314449978E+001 3.466900110E+000 
6.826699734E+000 1.314449978E+001 3.641000032E+000 
6.108100414E+000 1.314449978E+001 3.806299925E+000 
5.389500141E+000 1.314449978E+001 3.806299925E+000 
4.670899868E+000 1.314449978E+001 3.882299900E+000 
3.952300549E+000 1.314449978E+001 3.882299900E+000 
3.233700275E+000 1.314449978E+001 3.831799984E+000 
2.515100002E+000 1.314449978E+001 3.831799984E+000 
1.796499610E+000 1.314449978E+001 3.831799984E+000 
1.077900290E+000 1.314449978E+001 3.861900091E+000 
3.592990935E-001 1.314449978E+001 3.862799883E+000 
1.616850090E+001 1.428750038E+001 4.128099918E+000 
1.544989967E+001 1.428750038E+001 4.021599770E+000 
1.473130035E+001 1.428750038E+001 3.761399984E+000 
1.401270008E+001 1.428750038E+001 3.761399984E+000 
1.329409981E+001 1.428750038E+001 3.460000038E+000 
1.257549953E+001 1.428750038E+001 3.244699955E+000 
1.185690022E+001 1.428750038E+001 3.140100002E+000 
1.113829994E+001 1.428750038E+001 3.076600075E+000 
1.041969967E+001 1.428750038E+001 3.062700033E+000 
9.701099396E+000 1.428750038E+001 3.019999981E+000 
8.982500076E+000 1.428750038E+001 3.078000069E+000 
8.263899803E+000 1.428750038E+001 3.337800026E+000 
7.545300007E+000 1.428750038E+001 3.461400032E+000 
6.826699734E+000 1.428750038E+001 3.568300009E+000 
6.108100414E+000 1.428750038E+001 3.752599955E+000 
5.389500141E+000 1.428750038E+001 3.854899883E+000 
4.670899868E+000 1.428750038E+001 3.854899883E+000 
3.952300549E+000 1.428750038E+001 3.872100115E+000 
3.233700275E+000 1.428750038E+001 3.872100115E+000 
2.515100002E+000 1.428750038E+001 3.846100092E+000 
1.796499610E+000 1.428750038E+001 3.854899883E+000 
1.077900290E+000 1.428750038E+001 3.855400085E+000 
3.592990935E-001 1.428750038E+001 3.855400085E+000 
1.616850090E+001 1.543050003E+001 3.960999966E+000 
1.544989967E+001 1.543050003E+001 3.960999966E+000 
1.473130035E+001 1.543050003E+001 3.960999966E+000 
1.401270008E+001 1.543050003E+001 3.761399984E+000 
1.329409981E+001 1.543050003E+001 3.518800020E+000 
1.257549953E+001 1.543050003E+001 3.266000032E+000 
1.185690022E+001 1.543050003E+001 3.266000032E+000 
1.113829994E+001 1.543050003E+001 3.063699961E+000 
1.041969967E+001 1.543050003E+001 3.048399925E+000 
9.701099396E+000 1.543050003E+001 3.019999981E+000 
8.982500076E+000 1.543050003E+001 3.063199997E+000 
8.263899803E+000 1.543050003E+001 3.194200039E+000 
7.545300007E+000 1.543050003E+001 3.404000044E+000 
6.826699734E+000 1.543050003E+001 3.469300032E+000 
6.108100414E+000 1.543050003E+001 3.705399990E+000 
5.389500141E+000 1.543050003E+001 3.839699984E+000 
4.670899868E+000 1.543050003E+001 3.839699984E+000 
3.952300549E+000 1.543050003E+001 3.839699984E+000 
3.233700275E+000 1.543050003E+001 3.872499943E+000 
2.515100002E+000 1.543050003E+001 3.846100092E+000 
1.796499610E+000 1.543050003E+001 3.846100092E+000 
1.077900290E+000 1.543050003E+001 3.851200104E+000 
3.592990935E-001 1.543050003E+001 3.851200104E+000 
1.616850090E+001 1.657349968E+001 4.111899853E+000 
1.544989967E+001 1.657349968E+001 3.995699883E+000 
1.473130035E+001 1.657349968E+001 3.770699978E+000 
1.401270008E+001 1.657349968E+001 3.770699978E+000 
1.329409981E+001 1.657349968E+001 3.518800020E+000 
1.257549953E+001 1.657349968E+001 3.264600039E+000 
1.185690022E+001 1.657349968E+001 3.264600039E+000 
1.113829994E+001 1.657349968E+001 3.059999943E+000 
1.041969967E+001 1.657349968E+001 3.025700092E+000 
9.701099396E+000 1.657349968E+001 3.022599936E+000 
8.982500076E+000 1.657349968E+001 3.032599926E+000 
8.263899803E+000 1.657349968E+001 3.136800051E+000 
7.545300007E+000 1.657349968E+001 3.265500069E+000 
6.826699734E+000 1.657349968E+001 3.437299967E+000 
6.108100414E+000 1.657349968E+001 3.705399990E+000 
5.389500141E+000 1.657349968E+001 3.705399990E+000 
4.670899868E+000 1.657349968E+001 3.818799973E+000 
3.952300549E+000 1.657349968E+001 3.872499943E+000 
3.233700275E+000 1.657349968E+001 3.872499943E+000 
2.515100002E+000 1.657349968E+001 3.844799995E+000 
1.796499610E+000 1.657349968E+001 3.844799995E+000 
1.077900290E+000 1.657349968E+001 3.835500002E+000 
3.592990935E-001 1.657349968E+001 3.833199978E+000 
1.616850090E+001 1.771649933E+001 4.028999805E+000 
1.544989967E+001 1.771649933E+001 4.028999805E+000 
1.473130035E+001 1.771649933E+001 3.782200098E+000 
1.401270008E+001 1.771649933E+001 3.782200098E+000 
1.329409981E+001 1.771649933E+001 3.505800009E+000 
1.257549953E+001 1.771649933E+001 3.230400085E+000 
1.185690022E+001 1.771649933E+001 3.230400085E+000 
1.113829994E+001 1.771649933E+001 3.099299908E+000 
1.041969967E+001 1.771649933E+001 3.046999931E+000 
9.701099396E+000 1.771649933E+001 3.020200014E+000 
8.982500076E+000 1.771649933E+001 3.019999981E+000 
8.263899803E+000 1.771649933E+001 3.165999889E+000 
7.545300007E+000 1.771649933E+001 3.296999931E+000 
6.826699734E+000 1.771649933E+001 3.413700104E+000 
6.108100414E+000 1.771649933E+001 3.650300026E+000 
5.389500141E+000 1.771649933E+001 3.650300026E+000 
4.670899868E+000 1.771649933E+001 3.818799973E+000 
3.952300549E+000 1.771649933E+001 3.818799973E+000 
3.233700275E+000 1.771649933E+001 3.844799995E+000 
2.515100002E+000 1.771649933E+001 3.844799995E+000 
1.796499610E+000 1.771649933E+001 3.844799995E+000 
1.077900290E+000 1.771649933E+001 3.827600002E+000 
3.592990935E-001 1.771649933E+001 3.826699972E+000 
1.616850090E+001 1.885950089E+001 4.166100025E+000 
1.544989967E+001 1.885950089E+001 3.997100115E+000 
1.473130035E+001 1.885950089E+001 3.787300110E+000 
1.401270008E+001 1.885950089E+001 3.787300110E+000 
1.329409981E+001 1.885950089E+001 3.506299973E+000 
1.257549953E+001 1.885950089E+001 3.506299973E+000 
1.185690022E+001 1.885950089E+001 3.229000092E+000 
1.113829994E+001 1.885950089E+001 3.101599932E+000 
1.041969967E+001 1.885950089E+001 3.046099901E+000 
9.701099396E+000 1.885950089E+001 3.030800104E+000 
8.982500076E+000 1.885950089E+001 3.019999981E+000 
8.263899803E+000 1.885950089E+001 3.076200008E+000 
7.545300007E+000 1.885950089E+001 3.241499901E+000 
6.826699734E+000 1.885950089E+001 3.382200003E+000 
6.108100414E+000 1.885950089E+001 3.566499949E+000 
5.389500141E+000 1.885950089E+001 3.566499949E+000 
4.670899868E+000 1.885950089E+001 3.743799925E+000 
3.952300549E+000 1.885950089E+001 3.743799925E+000 
3.233700275E+000 1.885950089E+001 3.807699919E+000 
2.515100002E+000 1.885950089E+001 3.769700050E+000 
1.796499610E+000 1.885950089E+001 3.769700050E+000 
1.077900290E+000 1.885950089E+001 3.769700050E+000 
3.592990935E-001 1.885950089E+001 3.793800116E+000 
1.616850090E+001 2.000250053E+001 4.103099823E+000 
1.544989967E+001 2.000250053E+001 3.997100115E+000 
1.473130035E+001 2.000250053E+001 3.997100115E+000 
1.401270008E+001 2.000250053E+001 3.784100056E+000 
1.329409981E+001 2.000250053E+001 3.531800032E+000 
1.257549953E+001 2.000250053E+001 3.531800032E+000 
1.185690022E+001 2.000250053E+001 3.248399973E+000 
1.113829994E+001 2.000250053E+001 3.101200104E+000 
1.041969967E+001 2.000250053E+001 3.046999931E+000 
9.701099396E+000 2.000250053E+001 3.029400110E+000 
8.982500076E+000 2.000250053E+001 3.020100117E+000 
8.263899803E+000 2.000250053E+001 3.067399979E+000 
7.545300007E+000 2.000250053E+001 3.150300026E+000 
6.826699734E+000 2.000250053E+001 3.352099895E+000 
6.108100414E+000 2.000250053E+001 3.328999996E+000 
5.389500141E+000 2.000250053E+001 3.478100061E+000 
4.670899868E+000 2.000250053E+001 3.693399906E+000 
3.952300549E+000 2.000250053E+001 3.693399906E+000 
3.233700275E+000 2.000250053E+001 3.781800032E+000 
2.515100002E+000 2.000250053E+001 3.781800032E+000 
1.796499610E+000 2.000250053E+001 3.769700050E+000 
1.077900290E+000 2.000250053E+001 3.768800020E+000 
3.592990935E-001 2.000250053E+001 3.772099972E+000 
1.616850090E+001 2.114550018E+001 4.103099823E+000 
1.544989967E+001 2.114550018E+001 3.966500044E+000 
1.473130035E+001 2.114550018E+001 3.966500044E+000 
1.401270008E+001 2.114550018E+001 3.784100056E+000 
1.329409981E+001 2.114550018E+001 3.531800032E+000 
1.257549953E+001 2.114550018E+001 3.253499985E+000 
1.185690022E+001 2.114550018E+001 3.253499985E+000 
1.113829994E+001 2.114550018E+001 3.098900080E+000 
1.041969967E+001 2.114550018E+001 3.098900080E+000 
9.701099396E+000 2.114550018E+001 3.039099932E+000 
8.982500076E+000 2.114550018E+001 3.020800114E+000 
8.263899803E+000 2.114550018E+001 3.019999981E+000 
7.545300007E+000 2.114550018E+001 3.149300098E+000 
6.826699734E+000 2.114550018E+001 3.312799931E+000 
6.108100414E+000 2.114550018E+001 3.312799931E+000 
5.389500141E+000 2.114550018E+001 3.478100061E+000 
4.670899868E+000 2.114550018E+001 3.681299925E+000 
3.952300549E+000 2.114550018E+001 3.759599924E+000 
3.233700275E+000 2.114550018E+001 3.759599924E+000 
2.515100002E+000 2.114550018E+001 3.782200098E+000 
1.796499610E+000 2.114550018E+001 3.742000103E+000 
1.077900290E+000 2.114550018E+001 3.742000103E+000 
3.592990935E-001 2.114550018E+001 3.773499966E+000 
1.616850090E+001 2.228849983E+001 4.162399769E+000 
1.544989967E+001 2.228849983E+001 4.024899960E+000 
1.473130035E+001 2.228849983E+001 3.792399883E+000 
1.401270008E+001 2.228849983E+001 3.792399883E+000 
1.329409981E+001 2.228849983E+001 3.537300110E+000 
1.257549953E+001 2.228849983E+001 3.537300110E+000 
1.185690022E+001 2.228849983E+001 3.257699966E+000 
1.113829994E+001 2.228849983E+001 3.124300003E+000 
1.041969967E+001 2.228849983E+001 3.056699991E+000 
9.701099396E+000 2.228849983E+001 3.024800062E+000 
8.982500076E+000 2.228849983E+001 3.020800114E+000 
8.263899803E+000 2.228849983E+001 3.019999981E+000 
7.545300007E+000 2.228849983E+001 3.096999884E+000 
6.826699734E+000 2.228849983E+001 3.301700115E+000 
6.108100414E+000 2.228849983E+001 3.301700115E+000 
5.389500141E+000 2.228849983E+001 3.509500027E+000 
4.670899868E+000 2.228849983E+001 3.681299925E+000 
3.952300549E+000 2.228849983E+001 3.771600008E+000 
3.233700275E+000 2.228849983E+001 3.771600008E+000 
2.515100002E+000 2.228849983E+001 3.782200098E+000 
1.796499610E+000 2.228849983E+001 3.782200098E+000 
1.077900290E+000 2.228849983E+001 3.781800032E+000 
3.592990935E-001 2.228849983E+001 3.794300079E+000 
1.616850090E+001 2.343149948E+001 4.026700020E+000 
1.544989967E+001 2.343149948E+001 4.026700020E+000 
1.473130035E+001 2.343149948E+001 3.817899942E+000 
1.401270008E+001 2.343149948E+001 3.817899942E+000 
1.329409981E+001 2.343149948E+001 3.552099943E+000 
1.257549953E+001 2.343149948E+001 3.552099943E+000 
1.185690022E+001 2.343149948E+001 3.279400110E+000 
1.113829994E+001 2.343149948E+001 3.124300003E+000 
1.041969967E+001 2.343149948E+001 3.062299967E+000 
9.701099396E+000 2.343149948E+001 3.027600050E+000 
8.982500076E+000 2.343149948E+001 3.019999981E+000 
8.263899803E+000 2.343149948E+001 3.019999981E+000 
7.545300007E+000 2.343149948E+001 3.089099884E+000 
6.826699734E+000 2.343149948E+001 3.183099985E+000 
6.108100414E+000 2.343149948E+001 3.410500050E+000 
5.389500141E+000 2.343149948E+001 3.410500050E+000 
4.670899868E+000 2.343149948E+001 3.622999907E+000 
3.952300549E+000 2.343149948E+001 3.771600008E+000 
3.233700275E+000 2.343149948E+001 3.771600008E+000 
2.515100002E+000 2.343149948E+001 3.831300020E+000 
1.796499610E+000 2.343149948E+001 3.831300020E+000 
1.077900290E+000 2.343149948E+001 3.781800032E+000 
3.592990935E-001 2.343149948E+001 3.781800032E+000 
1.616850090E+001 2.457449913E+001 4.128099918E+000 
1.544989967E+001 2.457449913E+001 4.026700020E+000 
1.473130035E+001 2.457449913E+001 3.811399937E+000 
1.401270008E+001 2.457449913E+001 3.811399937E+000 
1.329409981E+001 2.457449913E+001 3.576200008E+000 
1.257549953E+001 2.457449913E+001 3.576200008E+000 
1.185690022E+001 2.457449913E+001 3.315099955E+000 
1.113829994E+001 2.457449913E+001 3.153000116E+000 
1.041969967E+001 2.457449913E+001 3.075700045E+000 
9.701099396E+000 2.457449913E+001 3.039099932E+000 
8.982500076E+000 2.457449913E+001 3.022500038E+000 
8.263899803E+000 2.457449913E+001 3.019999981E+000 
7.545300007E+000 2.457449913E+001 3.078500032E+000 
6.826699734E+000 2.457449913E+001 3.144200087E+000 
6.108100414E+000 2.457449913E+001 3.215100050E+000 
5.389500141E+000 2.457449913E+001 3.558599949E+000 
4.670899868E+000 2.457449913E+001 3.558599949E+000 
3.952300549E+000 2.457449913E+001 3.728499889E+000 
3.233700275E+000 2.457449913E+001 3.728499889E+000 
2.515100002E+000 2.457449913E+001 3.838299990E+000 
1.796499610E+000 2.457449913E+001 3.838299990E+000 
1.077900290E+000 2.457449913E+001 3.840600014E+000 
3.592990935E-001 2.457449913E+001 3.840600014E+000 
1.616850090E+001 2.571750069E+001 4.005899906E+000 
1.544989967E+001 2.571750069E+001 4.005899906E+000 
1.473130035E+001 2.571750069E+001 3.811399937E+000 
1.401270008E+001 2.571750069E+001 3.811399937E+000 
1.329409981E+001 2.571750069E+001 3.576200008E+000 
1.257549953E+001 2.571750069E+001 3.323400021E+000 
1.185690022E+001 2.571750069E+001 3.323400021E+000 
1.113829994E+001 2.571750069E+001 3.168800116E+000 
1.041969967E+001 2.571750069E+001 3.078500032E+000 
9.701099396E+000 2.571750069E+001 3.078500032E+000 
8.982500076E+000 2.571750069E+001 3.024800062E+000 
8.263899803E+000 2.571750069E+001 3.019999981E+000 
7.545300007E+000 2.571750069E+001 3.046999931E+000 
6.826699734E+000 2.571750069E+001 3.118299961E+000 
6.108100414E+000 2.571750069E+001 3.196599960E+000 
5.389500141E+000 2.571750069E+001 3.335500002E+000 
4.670899868E+000 2.571750069E+001 3.529900074E+000 
3.952300549E+000 2.571750069E+001 3.697999954E+000 
3.233700275E+000 2.571750069E+001 3.795700073E+000 
2.515100002E+000 2.571750069E+001 3.795700073E+000 
1.796499610E+000 2.571750069E+001 3.831799984E+000 
1.077900290E+000 2.571750069E+001 3.831799984E+000 
3.592990935E-001 2.571750069E+001 3.840600014E+000 
1.616850090E+001 2.686050034E+001 4.132699966E+000 
1.544989967E+001 2.686050034E+001 3.988699913E+000 
1.473130035E+001 2.686050034E+001 3.988699913E+000 
1.401270008E+001 2.686050034E+001 3.798000097E+000 
1.329409981E+001 2.686050034E+001 3.572499990E+000 
1.257549953E+001 2.686050034E+001 3.572499990E+000 
1.185690022E+001 2.686050034E+001 3.323400021E+000 
1.113829994E+001 2.686050034E+001 3.160000086E+000 
1.041969967E+001 2.686050034E+001 3.160000086E+000 
9.701099396E+000 2.686050034E+001 3.079900026E+000 
8.982500076E+000 2.686050034E+001 3.034499884E+000 
8.263899803E+000 2.686050034E+001 3.020400047E+000 
7.545300007E+000 2.686050034E+001 3.019999981E+000 
6.826699734E+000 2.686050034E+001 3.123899937E+000 
6.108100414E+000 2.686050034E+001 3.184999943E+000 
5.389500141E+000 2.686050034E+001 3.292399883E+000 
4.670899868E+000 2.686050034E+001 3.512300014E+000 
3.952300549E+000 2.686050034E+001 3.697999954E+000 
3.233700275E+000 2.686050034E+001 3.756299973E+000 
2.515100002E+000 2.686050034E+001 3.756299973E+000 
1.796499610E+000 2.686050034E+001 3.792000055E+000 
1.077900290E+000 2.686050034E+001 3.746099949E+000 
3.592990935E-001 2.686050034E+001 3.746099949E+000 
1.616850090E+001 2.800349998E+001 4.141099930E+000 
1.544989967E+001 2.800349998E+001 4.040100098E+000 
1.473130035E+001 2.800349998E+001 3.817899942E+000 
1.401270008E+001 2.800349998E+001 3.817899942E+000 
1.329409981E+001 2.800349998E+001 3.579900026E+000 
1.257549953E+001 2.800349998E+001 3.579900026E+000 
1.185690022E+001 2.800349998E+001 3.339600086E+000 
1.113829994E+001 2.800349998E+001 3.149300098E+000 
1.041969967E+001 2.800349998E+001 3.149300098E+000 
9.701099396E+000 2.800349998E+001 3.082700014E+000 
8.982500076E+000 2.800349998E+001 3.039099932E+000 
8.263899803E+000 2.800349998E+001 3.020499945E+000 
7.545300007E+000 2.800349998E+001 3.019999981E+000 
6.826699734E+000 2.800349998E+001 3.044199944E+000 
6.108100414E+000 2.800349998E+001 3.182199955E+000 
5.389500141E+000 2.800349998E+001 3.311399937E+000 
4.670899868E+000 2.800349998E+001 3.425699949E+000 
3.952300549E+000 2.800349998E+001 3.648000002E+000 
3.233700275E+000 2.800349998E+001 3.648000002E+000 
2.515100002E+000 2.800349998E+001 3.756299973E+000 
1.796499610E+000 2.800349998E+001 3.742899895E+000 