variables="Time(minutes)","Discharge(cm<sup>3</sup>/minute)"
zone t="Smith and Woolhiser, 1971" 
   8.10702030252251       -2.41500531427975      
   8.20144009572046       -15.0794315870958      
   8.25659051889573       -24.4705072833279      
   8.31296195558224       -36.2388415484521      
   8.40476379077868       -49.1077293587845      
   8.46638164681024       -60.7911334467865      
   8.53621049047544       -72.5083523275317      
   8.61220217007799       -83.3385226916673      
   8.90162438560920       -132.057381933906      
   9.06741438791556       -158.706584177577      
   9.14157848600452       -172.088591808022      
   9.18693191689931       -183.470415128188      
   9.26113015084987       -200.645184279562      
   9.34544047734189       -225.322119076728      
   9.42015337505202       -257.953394073810      
   9.46596895299623       -282.213541890655      
   9.51497229524719       -307.272662484871      
   9.54323941449120       -320.300007986779      
   9.57030390107252       -334.779423600317      
   9.62876550282343       -381.069515694020      
   9.64937831156151       -407.321590720592      
   9.68331723550287       -432.417278474402      
   9.73692366739942       -459.695593141200      
   9.78979749118923       -481.858830612709      
   9.88450350045755       -509.281447941561      
   9.97021602311085       -527.870147263914      
   10.0915033652270       -550.975873784320      
   10.2290393774669       -571.590315109142      
   10.4079165439453       -593.783435420750      
   10.5512425234804       -607.844884468173      
   10.7186946796634       -619.940750388588      
   10.8859262656637       -630.989537319760      
   11.0547989988564       -638.187369830864      
   11.2160200473788       -643.774674538764      
   11.3659920165848       -647.182497895791      
   11.6512785411908       -658.860397250091      
   11.9257571268458       -672.198760206182      
   12.0527845453825       -680.295437091830      
   12.1428822133343       -687.946623742850      
   12.2413983099247       -694.326610103890      
   12.4051611672189       -707.164435488330      
   12.5015345820348       -717.336396979769      
   12.6512439676900       -732.345446614527      
   12.7874565588338       -749.539089138595      
   12.9728457973722       -770.993788743557      
   13.1361044942488       -787.676277423834      
   13.3141597742132       -803.185864630243      
   13.4013874039546       -809.528497441159      
   13.4926036778327       -816.161701552507      
   14.2835210878661       -868.792067285540      
   14.6810095637306       -891.701982564248      
   14.8982318061328       -905.857012084611      
   15.1688740461105       -920.667104915555      
   15.1987429250145       -859.432054015199      
   15.2243710795729       -815.104399486389      
   15.2606706296360       -753.953885567891      
   15.3012923049453       -695.932026368657      
   15.3427778801367       -654.946138392446      
   15.3773049912319       -618.450933531569      
   15.3941260934964       -593.801129207650      
   15.4218838006518       -523.552470064939      
   15.4529684413959       -433.072341784984      
   15.4816110551176       -381.190619835472      
   15.5378774583838       -332.000319471152      
   15.5790479333143       -298.559062229294      
   15.6393975107955       -258.366249101487      
   15.6781522170586       -239.781874927044      
   15.7414899953479       -199.280403516640      
   15.8248550210570       -155.680553422335      
   15.9194428677275       -115.198741775154      
   16.0092228095827       -81.2714951864299      
   16.1125441851529       -50.0301654491948      
   16.1129223054661       -50.1154888215815      
   16.1966707031594       -24.0474291787748      
   16.2725599751771        1.79257721064825      
   18.0026704747117        2.69220797572018      
zone t="Singh and Bhallamudi, 1998" 
   6.91261700832434       -4.68098962333121      
   7.30041089949308       -8.42735410305404      
   7.64391744898330       -16.2574445994016      
   7.97366987208242       -27.8338995754720      
   8.26364088723481       -39.7477160884444      
   8.56386841588158       -54.7331740073356      
   8.81180505622133       -75.6755401827130      
   9.04148163643819       -105.158107502043      
   9.28941827677794       -143.971198446879      
   9.57138574530183       -199.154581032015      
   9.81256348504390       -285.658325602541      
   10.0810131523724       -394.897406754357      
   10.2629494172177       -455.028758547389      
   10.3543416220749       -482.080199546597      
   10.4380375030580       -503.284826963365      
   10.5844567168216       -534.283162027167      
   10.7120145541309       -556.919020206550      
   10.8836365371006       -582.854966240500      
   11.0993147882242       -611.016397471263      
   11.2555966401559       -628.556838218580      
   11.4192360831812       -644.500119801682      
   11.7915506740301       -676.327703678219      
   12.2929382092765       -715.291781604605      
   12.6919969347747       -745.786433534641      
   13.2776895448420       -783.436452887220      
   13.7610533451613       -814.082091798807      
   14.3996827990706       -857.165676510883      
   14.5956909164035       -870.614920531551      
   14.8010575114869       -890.092241151571      
   14.8566096874949       -893.712389951404      
   14.9008970291735       -894.779915094398      
   14.9796773460856       -887.620222523945      
   15.0062508014269       -879.457095638604      
   15.0347673750441       -861.923732406048      
   15.0117650559938       -827.007992922485      
   15.0013825023950       -790.224575932764      
   15.0074954474577       -740.015899833506      
   15.0232662155190       -697.758418372049      
   15.0505381431054       -654.675226855237      
   15.0790547167227       -613.802579115188      
   15.1188361246694       -564.762479341889      
   15.1563645657503       -514.186558865632      
   15.2051578411606       -437.048725494412      
   15.2439309282722       -379.317437595611      
   15.2974664626101       -314.617156829617      
   15.3632751521125       -257.746966559971      
   15.4485885477685       -186.379666889887      
   15.5566679372793       -124.564652974461      
   15.6153947484165       -92.4276244247984      
   15.6907746083457       -64.2854597619940      
   15.7966010309905       -32.7787232212522      
   15.9409642155513       -12.2893179905264      
   16.0448580232623      -0.421112128230788      
   16.1638818951705        1.79965472540837      
   18.0037838289671        2.81173933611437      
zone t="Modflow-Surfact, Manning" 
   6.00440352614698       -14.4833475661827      
   6.08091774701563       -16.1383064342719      
   6.13084275752991       -17.7515866043289      
   6.18774198715354       -20.3431365923486      
   6.25136072984223       -23.6561998906426      
   6.33974897887822       -28.4508229454012      
   6.47187051830054       -36.3434314887970      
   6.65293763159265       -49.2642210740374      
   6.85368800785300       -65.2688411183948      
   7.05671760933432       -85.3280907298073      
   7.26184525338656       -105.593374659794      
   7.45780347984474       -130.528638745707      
   7.66268954703025       -158.935423821489      
   7.85846921667388       -188.997167765361      
   8.06057452405637       -221.570249863303      
   8.26024830775842       -256.749823369315      
   8.46027132758305       -292.842003084125      
   8.51249657000237       -302.314077004835      
   8.58414511767463       -314.944295289644      
   8.68885556022857       -335.804483654750      
   8.82219548732662       -361.495075843680      
   9.02638045643148       -396.251178049874      
   9.22456276556497       -430.020753337552      
   9.41868553300303       -459.677112963771      
   9.62450377179389       -486.998285914394      
   9.82508609458172       -513.392697626698      
   10.0141751353509       -535.069552556076      
   10.0379441983696       -537.963076507197      
   10.2247907756149       -556.740509556488      
   10.3087597434909       -565.581111882484      
   10.4357057611269       -578.133870700195      
   10.6096069693176       -593.075683944732      
   10.7993052039246       -611.561759303061      
   10.9980231835017       -629.701036438142      
   11.1977914972820       -645.941180445908      
   11.3975545593914       -662.223003151706      
   11.6042708339260       -678.044001007563      
   11.7997432808152       -693.628295314218      
   11.9992989019194       -709.616401157469      
   12.1993665609476       -724.995447536079      
   12.3979506229138       -739.948663443285      
   12.5950668428311       -754.424540299443      
   12.7987529031894       -768.230412424970      
   13.0002700234181       -782.380723602160      
   13.1949310871353       -795.708077090846      
   13.3982521563580       -808.845124071537      
   13.4744932903338       -812.277718730225      
   13.5987136907125       -821.426979338818      
   13.7913922486211       -833.971087860711      
   13.9866940162023       -846.187664727313      
   14.1970628279286       -858.425867333460      
   14.4016941890698       -870.627502780013      
   14.5839823158731       -880.384643267453      
   14.7939572522732       -890.108362157413      
   15.0056442334245       -900.753337551991      
   15.1038662364381       -742.524878815991      
   15.2186677648494       -585.622274511731      
   15.3379726011570       -453.521247903471      
   15.4661868973434       -339.198545177521      
   15.5772702426753       -243.663498577739      
   15.7067817016027       -162.028297771689      
   15.8288200326741       -96.3949646431446      
   15.9455699310324       -46.3647991939497      
   16.0695566320509       -10.3005363429154      
   16.1820054118470        1.41393017097848      
   16.3116087750171        1.37500383979748      
   16.4254019825933        1.47251626538222      
   16.5725905661608        1.59873194527217      
   16.7518458529523        1.75247129367387      
   16.9500439170989        1.92272484318266      
   17.1511671620014        2.09573075954267      
   17.3580935033766        2.27345501907610      
   17.5519221772378        2.44016981120486      
   17.7515959609398        2.61199614177148      
   17.9512461121223        2.78382247233811      
zone t="Modflow-Surfact, Darcy-Weisbach" 
   6.08623243808389       -5.73003458889593      
   6.13070358824799       -5.91758873004070      
   6.18501111822518       -5.57039731152736      
   6.24830688314638       -5.73396654154047      
   6.34078093223287       -6.47160085765719      
   6.47414711768601       -7.45340943300015      
   6.65075293644997       -9.37770705724064      
   6.85598823975804       -11.3865416633389      
   7.05751848916427       -14.9669777414618      
   7.26198179683298       -19.8347351154090      
   7.45928182523577       -26.5973004687625      
   7.66189391887131       -36.2734427317241      
   7.86021014561571       -46.9683539248874      
   8.05434604223131       -62.6871210119863      
   8.26362513222176       -80.5664960772629      
   8.46095667065064       -104.319028807697      
   8.51110487718311       -116.194312184753      
   8.58179762073045       -128.678655026448      
   8.68456757084395       -143.452180697799      
   8.83207125467235       -166.486738875339      
   9.02959447909332       -199.984223040014      
   9.22243583880346       -245.747040284084      
   9.42266892546872       -299.334050095534      
   9.62470858696351       -361.969662527877      
   9.82386245523498       -431.649761318187      
   10.0217244124365       -496.429074332336      
   10.2235960204588       -548.208565513089      
   10.3073417923165       -574.909669531668      
   10.4361626565053       -590.546652003760      
   10.6064585925434       -606.436065835632      
   10.7994049856739       -624.193157173663      
   10.9982542570264       -643.024064778920      
   11.1968855840318       -662.182504039467      
   11.3979274280335       -679.341938575527      
   11.6013220206504       -696.330333171550      
   11.7967472025005       -711.779761502497      
   11.9984717637343       -726.905196935534      
   12.1988151354909       -742.979805736965      
   12.4017134451968       -758.449287026399      
   12.6018336209353       -772.701042581818      
   12.8007459123400       -786.872979498553      
   13.0043348167845       -801.396039786446      
   13.2012882349002       -813.821010143209      
   13.3967449267764       -826.159084346528      
   13.5921307210938       -838.628878963439      
   13.7940994850299       -850.993690444741      
   13.9961181398406       -862.993223525364      
   14.1960965204616       -873.618145961455      
   14.3978289592020       -884.766018099270      
   14.5970826092227       -895.160921305654      
   14.7951861432910       -905.836959126123      
   15.0029973912324       -917.744877710129      
   15.1020150224049       -776.344783097519      
   15.2176095531397       -555.965914885513      
   15.3649977002057       -360.670938569384      
   15.5433050603789       -200.625131321075      
   15.7120806376579       -94.2375022270826      
   15.8901726793194       -32.8534303214985      
   16.2394350602432        2.09966271218721      
   16.4116242236827        1.75915561316962      
   16.5849398705551        2.04540176569251      
   16.7584025642159        1.80515945911073      
   16.9545629800082        2.06388194312187      
   16.9616107225118        2.60963697018471      
   17.1558884142448        2.03989703199014      
   17.3591280825668        2.38708845050348      
   17.5571003248596        2.70321744312491      
   17.7530112862787        3.06141832904297      
   17.9567367341696        3.14870767775193      
