TITLE = "1D Variably saturated flow: Comparison to Hydrus1D"
VARIABLES = "X","Y","Z","Zone","Head","Sat","Depth2GWT","Vx","Vy","Vz","qx","qy","qz","Kxx","Kyy","Kzz","Porosity","SpStor","Volume"
# X units: (cm)
# Y units: (cm)
# Z units: (cm)
# Head units: (cm)
# Sat units: (-)
# Depth2GWT units: (cm)
# Vx units: (cm d^-1)
# Vy units: (cm d^-1)
# Vz units: (cm d^-1)
# qx units: (cm d^-1)
# qy units: (cm d^-1)
# qz units: (cm d^-1)
# Kxx units: (cm d^-1)
# Kyy units: (cm d^-1)
# Kzz units: (cm d^-1)
# Porosity units: (-)
# SpStor units: (cm^-1)
# Volume units: (cm^3)
VARAUXDATA 1 Units="(cm)"
VARAUXDATA 2 Units="(cm)"
VARAUXDATA 3 Units="(cm)"
VARAUXDATA 5 Units="(cm)"
VARAUXDATA 6 Units="(-)"
VARAUXDATA 7 Units="(cm)"
VARAUXDATA 8 Units="(cm d^-1)"
VARAUXDATA 9 Units="(cm d^-1)"
VARAUXDATA 10 Units="(cm d^-1)"
VARAUXDATA 11 Units="(cm d^-1)"
VARAUXDATA 12 Units="(cm d^-1)"
VARAUXDATA 13 Units="(cm d^-1)"
VARAUXDATA 14 Units="(cm d^-1)"
VARAUXDATA 15 Units="(cm d^-1)"
VARAUXDATA 16 Units="(cm d^-1)"
VARAUXDATA 17 Units="(-)"
VARAUXDATA 18 Units="(cm^-1)"
VARAUXDATA 19 Units="(cm^3)"
ZONE T="pm", SOLUTIONTIME=2.0000000000E+01, DATAPACKING=BLOCK, NODES=404, ELEMENTS=100, ZONETYPE=FEBRICK, VARLOCATION=([4,8,9,10,11,12,13,14,15,16,17,18,19]=CELLCENTERED)
# x
   0.0000000000000000        1.0000000000000000        0.0000000000000000        1.0000000000000000        0.0000000000000000     
   1.0000000000000000        0.0000000000000000        1.0000000000000000        0.0000000000000000        1.0000000000000000     
   0.0000000000000000        1.0000000000000000        0.0000000000000000        1.0000000000000000        0.0000000000000000     
   1.0000000000000000        0.0000000000000000        1.0000000000000000        0.0000000000000000        1.0000000000000000     
   0.0000000000000000        1.0000000000000000        0.0000000000000000        1.0000000000000000        0.0000000000000000     
   1.0000000000000000        0.0000000000000000        1.0000000000000000        0.0000000000000000        1.0000000000000000     
   0.0000000000000000        1.0000000000000000        0.0000000000000000        1.0000000000000000        0.0000000000000000     
   1.0000000000000000        0.0000000000000000        1.0000000000000000        0.0000000000000000        1.0000000000000000     
   0.0000000000000000        1.0000000000000000        0.0000000000000000        1.0000000000000000        0.0000000000000000     
   1.0000000000000000        0.0000000000000000        1.0000000000000000        0.0000000000000000        1.0000000000000000     
   0.0000000000000000        1.0000000000000000        0.0000000000000000        1.0000000000000000        0.0000000000000000     
   1.0000000000000000        0.0000000000000000        1.0000000000000000        0.0000000000000000        1.0000000000000000     
   0.0000000000000000        1.0000000000000000        0.0000000000000000        1.0000000000000000        0.0000000000000000     
   1.0000000000000000        0.0000000000000000        1.0000000000000000        0.0000000000000000        1.0000000000000000     
   0.0000000000000000        1.0000000000000000        0.0000000000000000        1.0000000000000000        0.0000000000000000     
   1.0000000000000000        0.0000000000000000        1.0000000000000000        0.0000000000000000        1.0000000000000000     
   0.0000000000000000        1.0000000000000000        0.0000000000000000        1.0000000000000000        0.0000000000000000     
   1.0000000000000000        0.0000000000000000        1.0000000000000000        0.0000000000000000        1.0000000000000000     
   0.0000000000000000        1.0000000000000000        0.0000000000000000        1.0000000000000000        0.0000000000000000     
   1.0000000000000000        0.0000000000000000        1.0000000000000000        0.0000000000000000        1.0000000000000000     
   0.0000000000000000        1.0000000000000000        0.0000000000000000        1.0000000000000000        0.0000000000000000     
   1.0000000000000000        0.0000000000000000        1.0000000000000000        0.0000000000000000        1.0000000000000000     
   0.0000000000000000        1.0000000000000000        0.0000000000000000        1.0000000000000000        0.0000000000000000     
   1.0000000000000000        0.0000000000000000        1.0000000000000000        0.0000000000000000        1.0000000000000000     
   0.0000000000000000        1.0000000000000000        0.0000000000000000        1.0000000000000000        0.0000000000000000     
   1.0000000000000000        0.0000000000000000        1.0000000000000000        0.0000000000000000        1.0000000000000000     
   0.0000000000000000        1.0000000000000000        0.0000000000000000        1.0000000000000000        0.0000000000000000     
   1.0000000000000000        0.0000000000000000        1.0000000000000000        0.0000000000000000        1.0000000000000000     
   0.0000000000000000        1.0000000000000000        0.0000000000000000        1.0000000000000000        0.0000000000000000     
   1.0000000000000000        0.0000000000000000        1.0000000000000000        0.0000000000000000        1.0000000000000000     
   0.0000000000000000        1.0000000000000000        0.0000000000000000        1.0000000000000000        0.0000000000000000     
   1.0000000000000000        0.0000000000000000        1.0000000000000000        0.0000000000000000        1.0000000000000000     
   0.0000000000000000        1.0000000000000000        0.0000000000000000        1.0000000000000000        0.0000000000000000     
   1.0000000000000000        0.0000000000000000        1.0000000000000000        0.0000000000000000        1.0000000000000000     
   0.0000000000000000        1.0000000000000000        0.0000000000000000        1.0000000000000000        0.0000000000000000     
   1.0000000000000000        0.0000000000000000        1.0000000000000000        0.0000000000000000        1.0000000000000000     
   0.0000000000000000        1.0000000000000000        0.0000000000000000        1.0000000000000000        0.0000000000000000     
   1.0000000000000000        0.0000000000000000        1.0000000000000000        0.0000000000000000        1.0000000000000000     
   0.0000000000000000        1.0000000000000000        0.0000000000000000        1.0000000000000000        0.0000000000000000     
   1.0000000000000000        0.0000000000000000        1.0000000000000000        0.0000000000000000        1.0000000000000000     
   0.0000000000000000        1.0000000000000000        0.0000000000000000        1.0000000000000000        0.0000000000000000     
   1.0000000000000000        0.0000000000000000        1.0000000000000000        0.0000000000000000        1.0000000000000000     
   0.0000000000000000        1.0000000000000000        0.0000000000000000        1.0000000000000000        0.0000000000000000     
   1.0000000000000000        0.0000000000000000        1.0000000000000000        0.0000000000000000        1.0000000000000000     
   0.0000000000000000        1.0000000000000000        0.0000000000000000        1.0000000000000000        0.0000000000000000     
   1.0000000000000000        0.0000000000000000        1.0000000000000000        0.0000000000000000        1.0000000000000000     
   0.0000000000000000        1.0000000000000000        0.0000000000000000        1.0000000000000000        0.0000000000000000     
   1.0000000000000000        0.0000000000000000        1.0000000000000000        0.0000000000000000        1.0000000000000000     
   0.0000000000000000        1.0000000000000000        0.0000000000000000        1.0000000000000000        0.0000000000000000     
   1.0000000000000000        0.0000000000000000        1.0000000000000000        0.0000000000000000        1.0000000000000000     
   0.0000000000000000        1.0000000000000000        0.0000000000000000        1.0000000000000000        0.0000000000000000     
   1.0000000000000000        0.0000000000000000        1.0000000000000000        0.0000000000000000        1.0000000000000000     
   0.0000000000000000        1.0000000000000000        0.0000000000000000        1.0000000000000000        0.0000000000000000     
   1.0000000000000000        0.0000000000000000        1.0000000000000000        0.0000000000000000        1.0000000000000000     
   0.0000000000000000        1.0000000000000000        0.0000000000000000        1.0000000000000000        0.0000000000000000     
   1.0000000000000000        0.0000000000000000        1.0000000000000000        0.0000000000000000        1.0000000000000000     
   0.0000000000000000        1.0000000000000000        0.0000000000000000        1.0000000000000000        0.0000000000000000     
   1.0000000000000000        0.0000000000000000        1.0000000000000000        0.0000000000000000        1.0000000000000000     
   0.0000000000000000        1.0000000000000000        0.0000000000000000        1.0000000000000000        0.0000000000000000     
   1.0000000000000000        0.0000000000000000        1.0000000000000000        0.0000000000000000        1.0000000000000000     
   0.0000000000000000        1.0000000000000000        0.0000000000000000        1.0000000000000000        0.0000000000000000     
   1.0000000000000000        0.0000000000000000        1.0000000000000000        0.0000000000000000        1.0000000000000000     
   0.0000000000000000        1.0000000000000000        0.0000000000000000        1.0000000000000000        0.0000000000000000     
   1.0000000000000000        0.0000000000000000        1.0000000000000000        0.0000000000000000        1.0000000000000000     
   0.0000000000000000        1.0000000000000000        0.0000000000000000        1.0000000000000000        0.0000000000000000     
   1.0000000000000000        0.0000000000000000        1.0000000000000000        0.0000000000000000        1.0000000000000000     
   0.0000000000000000        1.0000000000000000        0.0000000000000000        1.0000000000000000        0.0000000000000000     
   1.0000000000000000        0.0000000000000000        1.0000000000000000        0.0000000000000000        1.0000000000000000     
   0.0000000000000000        1.0000000000000000        0.0000000000000000        1.0000000000000000        0.0000000000000000     
   1.0000000000000000        0.0000000000000000        1.0000000000000000        0.0000000000000000        1.0000000000000000     
   0.0000000000000000        1.0000000000000000        0.0000000000000000        1.0000000000000000        0.0000000000000000     
   1.0000000000000000        0.0000000000000000        1.0000000000000000        0.0000000000000000        1.0000000000000000     
   0.0000000000000000        1.0000000000000000        0.0000000000000000        1.0000000000000000        0.0000000000000000     
   1.0000000000000000        0.0000000000000000        1.0000000000000000        0.0000000000000000        1.0000000000000000     
   0.0000000000000000        1.0000000000000000        0.0000000000000000        1.0000000000000000        0.0000000000000000     
   1.0000000000000000        0.0000000000000000        1.0000000000000000        0.0000000000000000        1.0000000000000000     
   0.0000000000000000        1.0000000000000000        0.0000000000000000        1.0000000000000000        0.0000000000000000     
   1.0000000000000000        0.0000000000000000        1.0000000000000000        0.0000000000000000        1.0000000000000000     
   0.0000000000000000        1.0000000000000000        0.0000000000000000        1.0000000000000000        0.0000000000000000     
   1.0000000000000000        0.0000000000000000        1.0000000000000000        0.0000000000000000        1.0000000000000000     
   0.0000000000000000        1.0000000000000000        0.0000000000000000        1.0000000000000000     
# y
   0.0000000000000000        0.0000000000000000        1.0000000000000000        1.0000000000000000        0.0000000000000000     
   0.0000000000000000        1.0000000000000000        1.0000000000000000        0.0000000000000000        0.0000000000000000     
   1.0000000000000000        1.0000000000000000        0.0000000000000000        0.0000000000000000        1.0000000000000000     
   1.0000000000000000        0.0000000000000000        0.0000000000000000        1.0000000000000000        1.0000000000000000     
   0.0000000000000000        0.0000000000000000        1.0000000000000000        1.0000000000000000        0.0000000000000000     
   0.0000000000000000        1.0000000000000000        1.0000000000000000        0.0000000000000000        0.0000000000000000     
   1.0000000000000000        1.0000000000000000        0.0000000000000000        0.0000000000000000        1.0000000000000000     
   1.0000000000000000        0.0000000000000000        0.0000000000000000        1.0000000000000000        1.0000000000000000     
   0.0000000000000000        0.0000000000000000        1.0000000000000000        1.0000000000000000        0.0000000000000000     
   0.0000000000000000        1.0000000000000000        1.0000000000000000        0.0000000000000000        0.0000000000000000     
   1.0000000000000000        1.0000000000000000        0.0000000000000000        0.0000000000000000        1.0000000000000000     
   1.0000000000000000        0.0000000000000000        0.0000000000000000        1.0000000000000000        1.0000000000000000     
   0.0000000000000000        0.0000000000000000        1.0000000000000000        1.0000000000000000        0.0000000000000000     
   0.0000000000000000        1.0000000000000000        1.0000000000000000        0.0000000000000000        0.0000000000000000     
   1.0000000000000000        1.0000000000000000        0.0000000000000000        0.0000000000000000        1.0000000000000000     
   1.0000000000000000        0.0000000000000000        0.0000000000000000        1.0000000000000000        1.0000000000000000     
   0.0000000000000000        0.0000000000000000        1.0000000000000000        1.0000000000000000        0.0000000000000000     
   0.0000000000000000        1.0000000000000000        1.0000000000000000        0.0000000000000000        0.0000000000000000     
   1.0000000000000000        1.0000000000000000        0.0000000000000000        0.0000000000000000        1.0000000000000000     
   1.0000000000000000        0.0000000000000000        0.0000000000000000        1.0000000000000000        1.0000000000000000     
   0.0000000000000000        0.0000000000000000        1.0000000000000000        1.0000000000000000        0.0000000000000000     
   0.0000000000000000        1.0000000000000000        1.0000000000000000        0.0000000000000000        0.0000000000000000     
   1.0000000000000000        1.0000000000000000        0.0000000000000000        0.0000000000000000        1.0000000000000000     
   1.0000000000000000        0.0000000000000000        0.0000000000000000        1.0000000000000000        1.0000000000000000     
   0.0000000000000000        0.0000000000000000        1.0000000000000000        1.0000000000000000        0.0000000000000000     
   0.0000000000000000        1.0000000000000000        1.0000000000000000        0.0000000000000000        0.0000000000000000     
   1.0000000000000000        1.0000000000000000        0.0000000000000000        0.0000000000000000        1.0000000000000000     
   1.0000000000000000        0.0000000000000000        0.0000000000000000        1.0000000000000000        1.0000000000000000     
   0.0000000000000000        0.0000000000000000        1.0000000000000000        1.0000000000000000        0.0000000000000000     
   0.0000000000000000        1.0000000000000000        1.0000000000000000        0.0000000000000000        0.0000000000000000     
   1.0000000000000000        1.0000000000000000        0.0000000000000000        0.0000000000000000        1.0000000000000000     
   1.0000000000000000        0.0000000000000000        0.0000000000000000        1.0000000000000000        1.0000000000000000     
   0.0000000000000000        0.0000000000000000        1.0000000000000000        1.0000000000000000        0.0000000000000000     
   0.0000000000000000        1.0000000000000000        1.0000000000000000        0.0000000000000000        0.0000000000000000     
   1.0000000000000000        1.0000000000000000        0.0000000000000000        0.0000000000000000        1.0000000000000000     
   1.0000000000000000        0.0000000000000000        0.0000000000000000        1.0000000000000000        1.0000000000000000     
   0.0000000000000000        0.0000000000000000        1.0000000000000000        1.0000000000000000        0.0000000000000000     
   0.0000000000000000        1.0000000000000000        1.0000000000000000        0.0000000000000000        0.0000000000000000     
   1.0000000000000000        1.0000000000000000        0.0000000000000000        0.0000000000000000        1.0000000000000000     
   1.0000000000000000        0.0000000000000000        0.0000000000000000        1.0000000000000000        1.0000000000000000     
   0.0000000000000000        0.0000000000000000        1.0000000000000000        1.0000000000000000        0.0000000000000000     
   0.0000000000000000        1.0000000000000000        1.0000000000000000        0.0000000000000000        0.0000000000000000     
   1.0000000000000000        1.0000000000000000        0.0000000000000000        0.0000000000000000        1.0000000000000000     
   1.0000000000000000        0.0000000000000000        0.0000000000000000        1.0000000000000000        1.0000000000000000     
   0.0000000000000000        0.0000000000000000        1.0000000000000000        1.0000000000000000        0.0000000000000000     
   0.0000000000000000        1.0000000000000000        1.0000000000000000        0.0000000000000000        0.0000000000000000     
   1.0000000000000000        1.0000000000000000        0.0000000000000000        0.0000000000000000        1.0000000000000000     
   1.0000000000000000        0.0000000000000000        0.0000000000000000        1.0000000000000000        1.0000000000000000     
   0.0000000000000000        0.0000000000000000        1.0000000000000000        1.0000000000000000        0.0000000000000000     
   0.0000000000000000        1.0000000000000000        1.0000000000000000        0.0000000000000000        0.0000000000000000     
   1.0000000000000000        1.0000000000000000        0.0000000000000000        0.0000000000000000        1.0000000000000000     
   1.0000000000000000        0.0000000000000000        0.0000000000000000        1.0000000000000000        1.0000000000000000     
   0.0000000000000000        0.0000000000000000        1.0000000000000000        1.0000000000000000        0.0000000000000000     
   0.0000000000000000        1.0000000000000000        1.0000000000000000        0.0000000000000000        0.0000000000000000     
   1.0000000000000000        1.0000000000000000        0.0000000000000000        0.0000000000000000        1.0000000000000000     
   1.0000000000000000        0.0000000000000000        0.0000000000000000        1.0000000000000000        1.0000000000000000     
   0.0000000000000000        0.0000000000000000        1.0000000000000000        1.0000000000000000        0.0000000000000000     
   0.0000000000000000        1.0000000000000000        1.0000000000000000        0.0000000000000000        0.0000000000000000     
   1.0000000000000000        1.0000000000000000        0.0000000000000000        0.0000000000000000        1.0000000000000000     
   1.0000000000000000        0.0000000000000000        0.0000000000000000        1.0000000000000000        1.0000000000000000     
   0.0000000000000000        0.0000000000000000        1.0000000000000000        1.0000000000000000        0.0000000000000000     
   0.0000000000000000        1.0000000000000000        1.0000000000000000        0.0000000000000000        0.0000000000000000     
   1.0000000000000000        1.0000000000000000        0.0000000000000000        0.0000000000000000        1.0000000000000000     
   1.0000000000000000        0.0000000000000000        0.0000000000000000        1.0000000000000000        1.0000000000000000     
   0.0000000000000000        0.0000000000000000        1.0000000000000000        1.0000000000000000        0.0000000000000000     
   0.0000000000000000        1.0000000000000000        1.0000000000000000        0.0000000000000000        0.0000000000000000     
   1.0000000000000000        1.0000000000000000        0.0000000000000000        0.0000000000000000        1.0000000000000000     
   1.0000000000000000        0.0000000000000000        0.0000000000000000        1.0000000000000000        1.0000000000000000     
   0.0000000000000000        0.0000000000000000        1.0000000000000000        1.0000000000000000        0.0000000000000000     
   0.0000000000000000        1.0000000000000000        1.0000000000000000        0.0000000000000000        0.0000000000000000     
   1.0000000000000000        1.0000000000000000        0.0000000000000000        0.0000000000000000        1.0000000000000000     
   1.0000000000000000        0.0000000000000000        0.0000000000000000        1.0000000000000000        1.0000000000000000     
   0.0000000000000000        0.0000000000000000        1.0000000000000000        1.0000000000000000        0.0000000000000000     
   0.0000000000000000        1.0000000000000000        1.0000000000000000        0.0000000000000000        0.0000000000000000     
   1.0000000000000000        1.0000000000000000        0.0000000000000000        0.0000000000000000        1.0000000000000000     
   1.0000000000000000        0.0000000000000000        0.0000000000000000        1.0000000000000000        1.0000000000000000     
   0.0000000000000000        0.0000000000000000        1.0000000000000000        1.0000000000000000        0.0000000000000000     
   0.0000000000000000        1.0000000000000000        1.0000000000000000        0.0000000000000000        0.0000000000000000     
   1.0000000000000000        1.0000000000000000        0.0000000000000000        0.0000000000000000        1.0000000000000000     
   1.0000000000000000        0.0000000000000000        0.0000000000000000        1.0000000000000000        1.0000000000000000     
   0.0000000000000000        0.0000000000000000        1.0000000000000000        1.0000000000000000     
# z
   0.0000000000000000        0.0000000000000000        0.0000000000000000        0.0000000000000000        1.0000000000000000     
   1.0000000000000000        1.0000000000000000        1.0000000000000000        2.0000000000000000        2.0000000000000000     
   2.0000000000000000        2.0000000000000000        3.0000000000000000        3.0000000000000000        3.0000000000000000     
   3.0000000000000000        4.0000000000000000        4.0000000000000000        4.0000000000000000        4.0000000000000000     
   5.0000000000000000        5.0000000000000000        5.0000000000000000        5.0000000000000000        6.0000000000000000     
   6.0000000000000000        6.0000000000000000        6.0000000000000000        7.0000000000000000        7.0000000000000000     
   7.0000000000000000        7.0000000000000000        8.0000000000000000        8.0000000000000000        8.0000000000000000     
   8.0000000000000000        9.0000000000000000        9.0000000000000000        9.0000000000000000        9.0000000000000000     
   10.000000000000000        10.000000000000000        10.000000000000000        10.000000000000000        11.000000000000000     
   11.000000000000000        11.000000000000000        11.000000000000000        12.000000000000000        12.000000000000000     
   12.000000000000000        12.000000000000000        13.000000000000000        13.000000000000000        13.000000000000000     
   13.000000000000000        14.000000000000000        14.000000000000000        14.000000000000000        14.000000000000000     
   15.000000000000000        15.000000000000000        15.000000000000000        15.000000000000000        16.000000000000000     
   16.000000000000000        16.000000000000000        16.000000000000000        17.000000000000000        17.000000000000000     
   17.000000000000000        17.000000000000000        18.000000000000000        18.000000000000000        18.000000000000000     
   18.000000000000000        19.000000000000000        19.000000000000000        19.000000000000000        19.000000000000000     
   20.000000000000000        20.000000000000000        20.000000000000000        20.000000000000000        21.000000000000000     
   21.000000000000000        21.000000000000000        21.000000000000000        22.000000000000000        22.000000000000000     
   22.000000000000000        22.000000000000000        23.000000000000000        23.000000000000000        23.000000000000000     
   23.000000000000000        24.000000000000000        24.000000000000000        24.000000000000000        24.000000000000000     
   25.000000000000000        25.000000000000000        25.000000000000000        25.000000000000000        26.000000000000000     
   26.000000000000000        26.000000000000000        26.000000000000000        27.000000000000000        27.000000000000000     
   27.000000000000000        27.000000000000000        28.000000000000000        28.000000000000000        28.000000000000000     
   28.000000000000000        29.000000000000000        29.000000000000000        29.000000000000000        29.000000000000000     
   30.000000000000000        30.000000000000000        30.000000000000000        30.000000000000000        31.000000000000000     
   31.000000000000000        31.000000000000000        31.000000000000000        32.000000000000000        32.000000000000000     
   32.000000000000000        32.000000000000000        33.000000000000000        33.000000000000000        33.000000000000000     
   33.000000000000000        34.000000000000000        34.000000000000000        34.000000000000000        34.000000000000000     
   35.000000000000000        35.000000000000000        35.000000000000000        35.000000000000000        36.000000000000000     
   36.000000000000000        36.000000000000000        36.000000000000000        37.000000000000000        37.000000000000000     
   37.000000000000000        37.000000000000000        38.000000000000000        38.000000000000000        38.000000000000000     
   38.000000000000000        39.000000000000000        39.000000000000000        39.000000000000000        39.000000000000000     
   40.000000000000000        40.000000000000000        40.000000000000000        40.000000000000000        41.000000000000000     
   41.000000000000000        41.000000000000000        41.000000000000000        42.000000000000000        42.000000000000000     
   42.000000000000000        42.000000000000000        43.000000000000000        43.000000000000000        43.000000000000000     
   43.000000000000000        44.000000000000000        44.000000000000000        44.000000000000000        44.000000000000000     
   45.000000000000000        45.000000000000000        45.000000000000000        45.000000000000000        46.000000000000000     
   46.000000000000000        46.000000000000000        46.000000000000000        47.000000000000000        47.000000000000000     
   47.000000000000000        47.000000000000000        48.000000000000000        48.000000000000000        48.000000000000000     
   48.000000000000000        49.000000000000000        49.000000000000000        49.000000000000000        49.000000000000000     
   50.000000000000000        50.000000000000000        50.000000000000000        50.000000000000000        51.000000000000000     
   51.000000000000000        51.000000000000000        51.000000000000000        52.000000000000000        52.000000000000000     
   52.000000000000000        52.000000000000000        53.000000000000000        53.000000000000000        53.000000000000000     
   53.000000000000000        54.000000000000000        54.000000000000000        54.000000000000000        54.000000000000000     
   55.000000000000000        55.000000000000000        55.000000000000000        55.000000000000000        56.000000000000000     
   56.000000000000000        56.000000000000000        56.000000000000000        57.000000000000000        57.000000000000000     
   57.000000000000000        57.000000000000000        58.000000000000000        58.000000000000000        58.000000000000000     
   58.000000000000000        59.000000000000000        59.000000000000000        59.000000000000000        59.000000000000000     
   60.000000000000000        60.000000000000000        60.000000000000000        60.000000000000000        61.000000000000000     
   61.000000000000000        61.000000000000000        61.000000000000000        62.000000000000000        62.000000000000000     
   62.000000000000000        62.000000000000000        63.000000000000000        63.000000000000000        63.000000000000000     
   63.000000000000000        64.000000000000000        64.000000000000000        64.000000000000000        64.000000000000000     
   65.000000000000000        65.000000000000000        65.000000000000000        65.000000000000000        66.000000000000000     
   66.000000000000000        66.000000000000000        66.000000000000000        67.000000000000000        67.000000000000000     
   67.000000000000000        67.000000000000000        68.000000000000000        68.000000000000000        68.000000000000000     
   68.000000000000000        69.000000000000000        69.000000000000000        69.000000000000000        69.000000000000000     
   70.000000000000000        70.000000000000000        70.000000000000000        70.000000000000000        71.000000000000000     